 *******************************************************************************
 ** Site#: 6541         For non-commercial use only     Version 14.208M 64BITS**
 *******************************************************************************
 ** Cite this work as:                                                        **
 **                                                                           **
 ** (a) MOPAC2012, James J. P. Stewart, Stewart Computational Chemistry,      **
 **  Version 14.208M web: HTTP://OpenMOPAC.net         Days remaining: 126    **
 **                                                                           **
 **                                 AND                                       **
 **                                                                           **
 ** (b) Maia, J.D.C., et al., J. Chem. Theory Comput. 2012, 8, 3072-3081.     **
 **                DOI: 10.1021/ct3004645.                                    **
 *******************************************************************************
 **                                                                           **
 **                                MOPAC2012                                  **
 **                                                                           **
 *******************************************************************************

                            PM7 CALCULATION RESULTS


 *******************************************************************************
 *  CALCULATION DONE:                                Mon Mar 23 22:56:52 2015  *
 *  PM7        - The PM7 Hamiltonian to be used
 *  MMOK       - APPLY MM CORRECTION TO CONH BARRIER
 *  PRECISE    - CRITERIA TO BE INCREASED BY 100 TIMES
 *  BFGS       - USE THE BFGS GEOMETRY OPTIMIZER
 *  T=         - A TIME OF 172800.0 SECONDS REQUESTED
 *  DUMP=N     - RESTART FILE WRITTEN EVERY  7200.000 SECONDS
 *******************************************************************************
 BFGS PM7 MMOK PRECISE
 C8H10N4O2

   ATOM   CHEMICAL          X               Y               Z
  NUMBER   SYMBOL      (ANGSTROMS)     (ANGSTROMS)     (ANGSTROMS)
 
     1       N          1.31200000  *  -1.04790000  *   0.00250000  *
     2       C          2.24650000  *  -2.17620000  *   0.00310000  *
     3       C          1.79060000  *   0.20810000  *   0.00100000  *
     4       O          2.99380000  *   0.38380000  *   0.00020000  *
     5       N          0.97140000  *   1.27670000  *  -0.00010000  *
     6       C          1.53390000  *   2.62940000  *  -0.00170000  *
     7       C         -0.40260000  *   1.09890000  *  -0.00010000  *
     8       N         -1.44460000  *   1.93420000  *  -0.00100000  *
     9       C         -2.56080000  *   1.25100000  *   0.00000000  *
    10       N         -2.28620000  *  -0.06800000  *   0.00150000  *
    11       C         -3.26140000  *  -1.16120000  *   0.00290000  *
    12       C         -0.91140000  *  -0.19390000  *   0.00140000  *
    13       C         -0.01630000  *  -1.28530000  *  -0.00220000  *
    14       O         -0.43800000  *  -2.42790000  *  -0.00680000  *
    15       H          3.26970000  *  -1.80040000  *   0.00220000  *
    16       H          2.08300000  *  -2.78280000  *   0.89380000  *
    17       H          2.08210000  *  -2.78460000  *  -0.88620000  *
    18       H          2.62230000  *   2.57030000  *  -0.00190000  *
    19       H          1.19870000  *   3.16110000  *  -0.89230000  *
    20       H          1.19900000  *   3.16320000  *   0.88770000  *
    21       H         -3.55200000  *   1.67970000  *  -0.00010000  *
    22       H         -3.50370000  *  -1.43330000  *  -1.02440000  *
    23       H         -2.83890000  *  -2.02440000  *   0.51730000  *
    24       H         -4.16720000  *  -0.83950000  *   0.51680000  *
 


          CARTESIAN COORDINATES 

    NO.       ATOM         X         Y         Z

     1         N        1.3120   -1.0479    0.0025
     2         C        2.2465   -2.1762    0.0031
     3         C        1.7906    0.2081    0.0010
     4         O        2.9938    0.3838    0.0002
     5         N        0.9714    1.2767   -0.0001
     6         C        1.5339    2.6294   -0.0017
     7         C       -0.4026    1.0989   -0.0001
     8         N       -1.4446    1.9342   -0.0010
     9         C       -2.5608    1.2510    0.0000
    10         N       -2.2862   -0.0680    0.0015
    11         C       -3.2614   -1.1612    0.0029
    12         C       -0.9114   -0.1939    0.0014
    13         C       -0.0163   -1.2853   -0.0022
    14         O       -0.4380   -2.4279   -0.0068
    15         H        3.2697   -1.8004    0.0022
    16         H        2.0830   -2.7828    0.8938
    17         H        2.0821   -2.7846   -0.8862
    18         H        2.6223    2.5703   -0.0019
    19         H        1.1987    3.1611   -0.8923
    20         H        1.1990    3.1632    0.8877
    21         H       -3.5520    1.6797   -0.0001
    22         H       -3.5037   -1.4333   -1.0244
    23         H       -2.8389   -2.0244    0.5173
    24         H       -4.1672   -0.8395    0.5168

     ===================== shared-memory parallel CPU Section ======================
     **                                                                           **
     **  MOPAC calculations will run in shared-memory parallel CPUs               **
     **                                                                           **
     **  Number of Threads =  2                                                   **
     **                                                                           **
     **                                                                           **
     **  For information on this work, see:                                       **
     **                                                                           **
     **  Maia, J.D.C., et al., J. Chem. Theory Comput. 2012, 8, 3072-3081.        **
     **        DOI: 10.1021/ct3004645.                                            **
     **                                                                           **
     ===================== shared-memory parallel CPU Section ======================
      


 General Reference for PM7:
 "Optimization of Parameters for Semiempirical Methods VI: More Modifications to the 
 NDDO Approximations and Re-optimization of Parameters", J. J. P. Stewart, J. Mol. Mod., 1:32, 19 (2013)
 http://www.springerlink.com/openurl.asp?genre=article&id=doi:10.1007/s00894-012-1667-x

           Empirical Formula: C8 H10 N4 O2  =    24 atoms



      MOLECULAR POINT GROUP   :   C1  


      RHF CALCULATION, NO. OF DOUBLY OCCUPIED LEVELS =   37

      Geometry optimization using BFGS
 CYCLE:     1 TIME:   0.023 TIME LEFT:  2.00D  GRAD.:   135.671 HEAT: -40.67576    
 CYCLE:     2 TIME:   0.016 TIME LEFT:  2.00D  GRAD.:    63.462 HEAT: -43.77635    
 CYCLE:     3 TIME:   0.008 TIME LEFT:  2.00D  GRAD.:    58.076 HEAT: -44.78803    
 CYCLE:     4 TIME:   0.008 TIME LEFT:  2.00D  GRAD.:    31.728 HEAT: -45.38530    
 CYCLE:     5 TIME:   0.016 TIME LEFT:  2.00D  GRAD.:    23.348 HEAT: -45.64151    
 CYCLE:     6 TIME:   0.008 TIME LEFT:  2.00D  GRAD.:    27.921 HEAT: -45.71806    
 CYCLE:     7 TIME:   0.008 TIME LEFT:  2.00D  GRAD.:    13.599 HEAT: -45.94017    
 CYCLE:     8 TIME:   0.016 TIME LEFT:  2.00D  GRAD.:    13.903 HEAT: -46.00588    
 CYCLE:     9 TIME:   0.008 TIME LEFT:  2.00D  GRAD.:    10.119 HEAT: -46.08278    
 CYCLE:    10 TIME:   0.016 TIME LEFT:  2.00D  GRAD.:    14.183 HEAT: -46.08282    
 CYCLE:    11 TIME:   0.008 TIME LEFT:  2.00D  GRAD.:     5.105 HEAT: -46.17914    
 CYCLE:    12 TIME:   0.016 TIME LEFT:  2.00D  GRAD.:     6.408 HEAT: -46.19848    
 CYCLE:    13 TIME:   0.008 TIME LEFT:  2.00D  GRAD.:     4.925 HEAT: -46.22706    
 CYCLE:    14 TIME:   0.008 TIME LEFT:  2.00D  GRAD.:     4.577 HEAT: -46.24950    
 CYCLE:    15 TIME:   0.008 TIME LEFT:  2.00D  GRAD.:     5.416 HEAT: -46.26237    
 CYCLE:    16 TIME:   0.008 TIME LEFT:  2.00D  GRAD.:     3.777 HEAT: -46.27947    
 CYCLE:    17 TIME:   0.008 TIME LEFT:  2.00D  GRAD.:     2.752 HEAT: -46.29186    
 CYCLE:    18 TIME:   0.016 TIME LEFT:  2.00D  GRAD.:     2.155 HEAT: -46.29804    
 CYCLE:    19 TIME:   0.008 TIME LEFT:  2.00D  GRAD.:     1.852 HEAT: -46.30263    
 TEST ON GRADIENT SATISFIED
                    HOWEVER, A COMPONENT OF GRADIENT IS LARGER THAN  0.20

 CYCLE:    20 TIME:   0.016 TIME LEFT:  2.00D  GRAD.:     1.475 HEAT: -46.30681    
 TEST ON GRADIENT SATISFIED
                    HOWEVER, A COMPONENT OF GRADIENT IS LARGER THAN  0.20

 CYCLE:    21 TIME:   0.008 TIME LEFT:  2.00D  GRAD.:     1.108 HEAT: -46.30883    
 TEST ON GRADIENT SATISFIED
                    HOWEVER, A COMPONENT OF GRADIENT IS LARGER THAN  0.20

 CYCLE:    22 TIME:   0.016 TIME LEFT:  2.00D  GRAD.:     0.944 HEAT: -46.30973    
 TEST ON GRADIENT SATISFIED
                    HOWEVER, A COMPONENT OF GRADIENT IS LARGER THAN  0.20

 CYCLE:    23 TIME:   0.008 TIME LEFT:  2.00D  GRAD.:     0.878 HEAT: -46.31058    
 TEST ON GRADIENT SATISFIED
                    HOWEVER, A COMPONENT OF GRADIENT IS LARGER THAN  0.20

 CYCLE:    24 TIME:   0.008 TIME LEFT:  2.00D  GRAD.:     1.263 HEAT: -46.31188    
 CYCLE:    25 TIME:   0.016 TIME LEFT:  2.00D  GRAD.:     1.732 HEAT: -46.31465    
 TEST ON GRADIENT SATISFIED
                    HOWEVER, A COMPONENT OF GRADIENT IS LARGER THAN  0.20

 CYCLE:    26 TIME:   0.016 TIME LEFT:  2.00D  GRAD.:     1.081 HEAT: -46.31777    
 TEST ON GRADIENT SATISFIED
                    HOWEVER, A COMPONENT OF GRADIENT IS LARGER THAN  0.20

 CYCLE:    27 TIME:   0.016 TIME LEFT:  2.00D  GRAD.:     1.612 HEAT: -46.32051    
 TEST ON GRADIENT SATISFIED
                    HOWEVER, A COMPONENT OF GRADIENT IS LARGER THAN  0.20

 CYCLE:    28 TIME:   0.016 TIME LEFT:  2.00D  GRAD.:     1.542 HEAT: -46.32311    
 TEST ON GRADIENT SATISFIED
                    HOWEVER, A COMPONENT OF GRADIENT IS LARGER THAN  0.20

 CYCLE:    29 TIME:   0.008 TIME LEFT:  2.00D  GRAD.:     1.175 HEAT: -46.32520    
 TEST ON GRADIENT SATISFIED
                    HOWEVER, A COMPONENT OF GRADIENT IS LARGER THAN  0.20

 CYCLE:    30 TIME:   0.016 TIME LEFT:  2.00D  GRAD.:     1.175 HEAT: -46.32727    
 TEST ON GRADIENT SATISFIED
                    HOWEVER, A COMPONENT OF GRADIENT IS LARGER THAN  0.20

 CYCLE:    31 TIME:   0.008 TIME LEFT:  2.00D  GRAD.:     1.540 HEAT: -46.32965    
 TEST ON GRADIENT SATISFIED
                    HOWEVER, A COMPONENT OF GRADIENT IS LARGER THAN  0.20

 CYCLE:    32 TIME:   0.016 TIME LEFT:  2.00D  GRAD.:     1.281 HEAT: -46.33302    
 TEST ON GRADIENT SATISFIED
                    HOWEVER, A COMPONENT OF GRADIENT IS LARGER THAN  0.20

 CYCLE:    33 TIME:   0.008 TIME LEFT:  2.00D  GRAD.:     1.066 HEAT: -46.33469    
 TEST ON GRADIENT SATISFIED
                    HOWEVER, A COMPONENT OF GRADIENT IS LARGER THAN  0.20

 CYCLE:    34 TIME:   0.016 TIME LEFT:  2.00D  GRAD.:     1.336 HEAT: -46.33772    
 CYCLE:    35 TIME:   0.023 TIME LEFT:  2.00D  GRAD.:     1.887 HEAT: -46.34136    
 TEST ON GRADIENT SATISFIED
                    HOWEVER, A COMPONENT OF GRADIENT IS LARGER THAN  0.20

 CYCLE:    36 TIME:   0.008 TIME LEFT:  2.00D  GRAD.:     1.625 HEAT: -46.34436    
 CYCLE:    37 TIME:   0.016 TIME LEFT:  2.00D  GRAD.:     2.483 HEAT: -46.35131    
 CYCLE:    38 TIME:   0.016 TIME LEFT:  2.00D  GRAD.:     2.005 HEAT: -46.35722    
 TEST ON GRADIENT SATISFIED
                    HOWEVER, A COMPONENT OF GRADIENT IS LARGER THAN  0.20

 CYCLE:    39 TIME:   0.008 TIME LEFT:  2.00D  GRAD.:     1.428 HEAT: -46.36198    
 CYCLE:    40 TIME:   0.016 TIME LEFT:  2.00D  GRAD.:     1.724 HEAT: -46.36361    
 TEST ON GRADIENT SATISFIED
                    HOWEVER, A COMPONENT OF GRADIENT IS LARGER THAN  0.20

 CYCLE:    41 TIME:   0.008 TIME LEFT:  2.00D  GRAD.:     1.466 HEAT: -46.36459    
 TEST ON GRADIENT SATISFIED
                    HOWEVER, A COMPONENT OF GRADIENT IS LARGER THAN  0.20

 CYCLE:    42 TIME:   0.008 TIME LEFT:  2.00D  GRAD.:     0.923 HEAT: -46.36613    
 TEST ON GRADIENT SATISFIED
                    HOWEVER, A COMPONENT OF GRADIENT IS LARGER THAN  0.20

 CYCLE:    43 TIME:   0.016 TIME LEFT:  2.00D  GRAD.:     1.006 HEAT: -46.36757    
 TEST ON GRADIENT SATISFIED
                    HOWEVER, A COMPONENT OF GRADIENT IS LARGER THAN  0.20

 CYCLE:    44 TIME:   0.016 TIME LEFT:  2.00D  GRAD.:     1.455 HEAT: -46.37138    
 TEST ON GRADIENT SATISFIED
                    HOWEVER, A COMPONENT OF GRADIENT IS LARGER THAN  0.20

 CYCLE:    45 TIME:   0.016 TIME LEFT:  2.00D  GRAD.:     1.682 HEAT: -46.37336    
 TEST ON GRADIENT SATISFIED
                    HOWEVER, A COMPONENT OF GRADIENT IS LARGER THAN  0.20

 CYCLE:    46 TIME:   0.016 TIME LEFT:  2.00D  GRAD.:     0.964 HEAT: -46.37556    
 TEST ON GRADIENT SATISFIED
                    HOWEVER, A COMPONENT OF GRADIENT IS LARGER THAN  0.20

 CYCLE:    47 TIME:   0.016 TIME LEFT:  2.00D  GRAD.:     1.126 HEAT: -46.37818    
 TEST ON GRADIENT SATISFIED
                    HOWEVER, A COMPONENT OF GRADIENT IS LARGER THAN  0.20

 CYCLE:    48 TIME:   0.016 TIME LEFT:  2.00D  GRAD.:     1.689 HEAT: -46.38213    
 TEST ON GRADIENT SATISFIED
                    HOWEVER, A COMPONENT OF GRADIENT IS LARGER THAN  0.20

 CYCLE:    49 TIME:   0.016 TIME LEFT:  2.00D  GRAD.:     1.143 HEAT: -46.38628    
 CYCLE:    50 TIME:   0.023 TIME LEFT:  2.00D  GRAD.:     1.791 HEAT: -46.38989    
 TEST ON GRADIENT SATISFIED
                    HOWEVER, A COMPONENT OF GRADIENT IS LARGER THAN  0.20

 CYCLE:    51 TIME:   0.008 TIME LEFT:  2.00D  GRAD.:     1.201 HEAT: -46.39243    
 TEST ON GRADIENT SATISFIED
                    HOWEVER, A COMPONENT OF GRADIENT IS LARGER THAN  0.20

 CYCLE:    52 TIME:   0.016 TIME LEFT:  2.00D  GRAD.:     0.698 HEAT: -46.39541    
 TEST ON GRADIENT SATISFIED
                    HOWEVER, A COMPONENT OF GRADIENT IS LARGER THAN  0.20

 CYCLE:    53 TIME:   0.008 TIME LEFT:  2.00D  GRAD.:     0.737 HEAT: -46.39673    
 TEST ON GRADIENT SATISFIED
                    HOWEVER, A COMPONENT OF GRADIENT IS LARGER THAN  0.20

 CYCLE:    54 TIME:   0.016 TIME LEFT:  2.00D  GRAD.:     0.860 HEAT: -46.39814    
 TEST ON GRADIENT SATISFIED
                    HOWEVER, A COMPONENT OF GRADIENT IS LARGER THAN  0.20

 CYCLE:    55 TIME:   0.008 TIME LEFT:  2.00D  GRAD.:     0.843 HEAT: -46.39972    
 TEST ON GRADIENT SATISFIED
                    HOWEVER, A COMPONENT OF GRADIENT IS LARGER THAN  0.20

 CYCLE:    56 TIME:   0.008 TIME LEFT:  2.00D  GRAD.:     0.840 HEAT: -46.40082    
 TEST ON GRADIENT SATISFIED
                    HOWEVER, A COMPONENT OF GRADIENT IS LARGER THAN  0.20

 CYCLE:    57 TIME:   0.016 TIME LEFT:  2.00D  GRAD.:     0.570 HEAT: -46.40153    
 TEST ON GRADIENT SATISFIED
                    HOWEVER, A COMPONENT OF GRADIENT IS LARGER THAN  0.20

 CYCLE:    58 TIME:   0.016 TIME LEFT:  2.00D  GRAD.:     0.769 HEAT: -46.40219    
 TEST ON GRADIENT SATISFIED
                    HOWEVER, A COMPONENT OF GRADIENT IS LARGER THAN  0.20

 CYCLE:    59 TIME:   0.016 TIME LEFT:  2.00D  GRAD.:     0.768 HEAT: -46.40318    
 TEST ON GRADIENT SATISFIED
                    HOWEVER, A COMPONENT OF GRADIENT IS LARGER THAN  0.20

 CYCLE:    60 TIME:   0.016 TIME LEFT:  2.00D  GRAD.:     1.458 HEAT: -46.40461    
 TEST ON GRADIENT SATISFIED
                    HOWEVER, A COMPONENT OF GRADIENT IS LARGER THAN  0.20

 CYCLE:    61 TIME:   0.016 TIME LEFT:  2.00D  GRAD.:     0.802 HEAT: -46.40587    
 TEST ON GRADIENT SATISFIED
                    HOWEVER, A COMPONENT OF GRADIENT IS LARGER THAN  0.20

 CYCLE:    62 TIME:   0.016 TIME LEFT:  2.00D  GRAD.:     1.039 HEAT: -46.40856    
 TEST ON GRADIENT SATISFIED
                    HOWEVER, A COMPONENT OF GRADIENT IS LARGER THAN  0.20

 CYCLE:    63 TIME:   0.008 TIME LEFT:  2.00D  GRAD.:     0.934 HEAT: -46.40968    
 TEST ON GRADIENT SATISFIED
                    HOWEVER, A COMPONENT OF GRADIENT IS LARGER THAN  0.20

 CYCLE:    64 TIME:   0.008 TIME LEFT:  2.00D  GRAD.:     0.615 HEAT: -46.41086    
 TEST ON GRADIENT SATISFIED
                    HOWEVER, A COMPONENT OF GRADIENT IS LARGER THAN  0.20

           THERE HAVE BEEN 3 ATTEMPTS TO REDUCE THE GRADIENT.
           DURING THESE ATTEMPTS THE ENERGY DROPPED BY LESS THAN 0.0 KCAL/MOLE
           FURTHER CALCULATION IS NOT JUSTIFIED AT THIS TIME.

 -------------------------------------------------------------------------------
 BFGS PM7 MMOK PRECISE
 C8H10N4O2



     GRADIENT TEST NOT PASSED, BUT FURTHER WORK NOT JUSTIFIED 
     SCF FIELD WAS ACHIEVED                                   


                              PM7 CALCULATION
                                                       MOPAC2012 (Version: 14.208M)
                                                       Mon Mar 23 22:56:53 2015
                                                       No. of days left = 126




          FINAL HEAT OF FORMATION =        -46.41141 KCAL/MOL =    -194.18533 KJ/MOL


          TOTAL ENERGY            =      -2453.27395 EV
          ELECTRONIC ENERGY       =     -14193.17301 EV  POINT GROUP:     Cs  
          CORE-CORE REPULSION     =      11739.89906 EV
          COSMO AREA              =        208.24 SQUARE ANGSTROMS
          COSMO VOLUME            =        216.72 CUBIC ANGSTROMS

          GRADIENT NORM           =          0.69706
          IONIZATION POTENTIAL    =          8.976452 EV
          HOMO LUMO ENERGIES (EV) =         -8.976 -0.460
          NO. OF FILLED LEVELS    =         37
          MOLECULAR WEIGHT        =        194.193

          MOLECULAR DIMENSIONS (Angstroms)

            Atom       Atom       Distance
            H    18    H    24     7.59636
            H    21    H    16     6.86760
            H    17    H    20     3.10370


          SCF CALCULATIONS        =        107
 
          WALL-CLOCK TIME         =          0.852 SECONDS
          COMPUTATION TIME        =          1.634 SECONDS




   ATOM   CHEMICAL          X               Y               Z
  NUMBER   SYMBOL      (ANGSTROMS)     (ANGSTROMS)     (ANGSTROMS)
 
     1       N          1.30527981  *  -1.07280490  *   0.01383950  *
     2       C          2.24457249  *  -2.20639758  *   0.04675599  *
     3       C          1.85708044  *   0.22228447  *  -0.00542889  *
     4       O          3.05582240  *   0.40900245  *   0.00227734  *
     5       N          0.96753985  *   1.31517121  *  -0.03957449  *
     6       C          1.48445950  *   2.68650835  *  -0.03444483  *
     7       C         -0.38648956  *   1.08792869  *  -0.04092445  *
     8       N         -1.41606246  *   2.00593825  *  -0.06724745  *
     9       C         -2.56366365  *   1.27042994  *  -0.06429966  *
    10       N         -2.29805388  *  -0.08100701  *  -0.03514311  *
    11       C         -3.25286780  *  -1.16898818  *  -0.02860073  *
    12       C         -0.91466820  *  -0.23117440  *  -0.02013383  *
    13       C         -0.07367319  *  -1.39586173  *   0.00880699  *
    14       O         -0.41968658  *  -2.55649197  *   0.02891454  *
    15       H          3.29408613  *  -1.85940191  *   0.07426677  *
    16       H          2.05311696  *  -2.82807359  *   0.94109985  *
    17       H          2.10319566  *  -2.83891995  *  -0.84906038  *
    18       H          2.58734845  *   2.68852422  *  -0.12875025  *
    19       H          1.05181192  *   3.25720430  *  -0.87829158  *
    20       H          1.20509776  *   3.19735350  *   0.90604138  *
    21       H         -3.55406380  *   1.69862228  *  -0.08237521  *
    22       H         -3.86640855  *  -1.16203493  *  -0.94970741  *
    23       H         -2.72907701  *  -2.15254546  *   0.01713731  *
    24       H         -3.92075424  *  -1.10473733  *   0.85130712  *
                             CARTESIAN COORDINATES

   1    N        1.305279806    -1.072804902     0.013839497
   2    C        2.244572494    -2.206397578     0.046755995
   3    C        1.857080443     0.222284470    -0.005428887
   4    O        3.055822397     0.409002451     0.002277343
   5    N        0.967539849     1.315171207    -0.039574493
   6    C        1.484459495     2.686508349    -0.034444825
   7    C       -0.386489557     1.087928689    -0.040924451
   8    N       -1.416062463     2.005938254    -0.067247452
   9    C       -2.563663647     1.270429940    -0.064299660
  10    N       -2.298053883    -0.081007006    -0.035143110
  11    C       -3.252867797    -1.168988178    -0.028600735
  12    C       -0.914668205    -0.231174401    -0.020133832
  13    C       -0.073673186    -1.395861728     0.008806987
  14    O       -0.419686583    -2.556491974     0.028914540
  15    H        3.294086132    -1.859401906     0.074266770
  16    H        2.053116957    -2.828073593     0.941099852
  17    H        2.103195663    -2.838919953    -0.849060377
  18    H        2.587348446     2.688524221    -0.128750253
  19    H        1.051811922     3.257204297    -0.878291580
  20    H        1.205097757     3.197353498     0.906041377
  21    H       -3.554063804     1.698622285    -0.082375206
  22    H       -3.866408550    -1.162034928    -0.949707409
  23    H       -2.729077012    -2.152545460     0.017137308
  24    H       -3.920754244    -1.104737328     0.851307121


           Empirical Formula: C8 H10 N4 O2  =    24 atoms



      MOLECULAR POINT GROUP   :   Cs  


                  EIGENVALUES  
 -39.24258 -38.30574 -36.42037 -34.27147 -31.15220 -30.41180 -27.38927 -25.55847
 -25.12097 -24.61256 -22.83964 -22.36652 -21.10017 -19.60386 -18.65452 -17.44679
 -17.31006 -16.37431 -16.23485 -15.88173 -15.47630 -15.41655 -15.07240 -14.45231
 -14.44218 -14.13392 -13.83160 -13.67400 -13.40880 -13.28644 -11.78106 -11.57345
 -11.35488 -10.82656 -10.75418 -10.15128  -8.97645  -0.46022   0.34441   0.46621
   0.89053   1.13757   1.52341   1.99510   2.43790   3.02169   3.40884   3.57382
   3.84037   4.01717   4.27570   4.40226   4.52191   4.72426   4.84273   4.93556
   5.07411   5.14571   5.30406   5.39008   5.44475   5.52233   5.55582   5.67216
   6.10478   6.26262


              NET ATOMIC CHARGES AND DIPOLE CONTRIBUTIONS

  ATOM NO.   TYPE          CHARGE      No. of ELECS.   s-Pop       p-Pop       
    1          N          -0.522813        5.5228     1.58363     3.93918
    2          C          -0.207176        4.2072     1.06183     3.14535
    3          C           0.703523        3.2965     1.03633     2.26015
    4          O          -0.501160        6.5012     1.88266     4.61850
    5          N          -0.412061        5.4121     1.54050     3.87156
    6          C          -0.204844        4.2048     1.06321     3.14163
    7          C           0.309559        3.6904     1.04047     2.64997
    8          N          -0.433421        5.4334     1.77494     3.65848
    9          C           0.119917        3.8801     1.10301     2.77708
   10          N          -0.154840        5.1548     1.51083     3.64401
   11          C          -0.256670        4.2567     1.06327     3.19340
   12          C          -0.285793        4.2858     1.04242     3.24338
   13          C           0.627484        3.3725     1.05432     2.31819
   14          O          -0.497436        6.4974     1.88055     4.61689
   15          H           0.175227        0.8248     0.82477
   16          H           0.158802        0.8412     0.84120
   17          H           0.158086        0.8419     0.84191
   18          H           0.177667        0.8223     0.82233
   19          H           0.162594        0.8374     0.83741
   20          H           0.157691        0.8423     0.84231
   21          H           0.196628        0.8034     0.80337
   22          H           0.163396        0.8366     0.83660
   23          H           0.202575        0.7974     0.79742
   24          H           0.163063        0.8369     0.83694
 DIPOLE           X         Y         Z       TOTAL
 POINT-CHG.    -3.555     0.418    -0.018     3.579
 HYBRID        -0.163    -0.746     0.026     0.764
 SUM           -3.718    -0.329     0.008     3.732


          ATOMIC ORBITAL ELECTRON POPULATIONS

    Atom      s        px        py        pz   
    1  N   1.58363   1.14714   1.12558   1.66647
    2  C   1.06183   1.02948   0.93904   1.17683
    3  C   1.03633   0.77312   0.73819   0.74884
    4  O   1.88266   1.21266   1.81634   1.58951
    5  N   1.54050   1.08208   1.13071   1.65878
    6  C   1.06321   1.13978   0.82330   1.17855
    7  C   1.04047   0.81670   0.88480   0.94847
    8  N   1.77494   1.03924   1.31513   1.30410
    9  C   1.10301   1.00290   0.76734   1.00684
   10  N   1.51083   1.08615   1.10274   1.45512
   11  C   1.06327   1.02648   0.99553   1.17138
   12  C   1.04242   0.86525   1.01707   1.36105
   13  C   1.05432   0.76613   0.82954   0.72253
   14  O   1.88055   1.79204   1.28524   1.53960
   15  H   0.82477
   16  H   0.84120
   17  H   0.84191
   18  H   0.82233
   19  H   0.83741
   20  H   0.84231
   21  H   0.80337
   22  H   0.83660
   23  H   0.79742
   24  H   0.83694



 TOTAL JOB TIME:             0.86 SECONDS

 == MOPAC DONE ==
