 *******************************************************************************
 ** Site#: 6541         For non-commercial use only     Version 14.208M 64BITS**
 *******************************************************************************
 ** Cite this work as:                                                        **
 **                                                                           **
 ** (a) MOPAC2012, James J. P. Stewart, Stewart Computational Chemistry,      **
 **  Version 14.208M web: HTTP://OpenMOPAC.net         Days remaining: 126    **
 **                                                                           **
 **                                 AND                                       **
 **                                                                           **
 ** (b) Maia, J.D.C., et al., J. Chem. Theory Comput. 2012, 8, 3072-3081.     **
 **                DOI: 10.1021/ct3004645.                                    **
 *******************************************************************************
 **                                                                           **
 **                                MOPAC2012                                  **
 **                                                                           **
 *******************************************************************************

                            PM7 CALCULATION RESULTS


 *******************************************************************************
 *  CALCULATION DONE:                                Mon Mar 23 22:52:48 2015  *
 *  PM7        - The PM7 Hamiltonian to be used
 *  MMOK       - APPLY MM CORRECTION TO CONH BARRIER
 *  PRECISE    - CRITERIA TO BE INCREASED BY 100 TIMES
 *  BFGS       - USE THE BFGS GEOMETRY OPTIMIZER
 *  T=         - A TIME OF 172800.0 SECONDS REQUESTED
 *  DUMP=N     - RESTART FILE WRITTEN EVERY  7200.000 SECONDS
 *******************************************************************************
 BFGS PM7 MMOK PRECISE
 C8H17NO2

   ATOM   CHEMICAL          X               Y               Z
  NUMBER   SYMBOL      (ANGSTROMS)     (ANGSTROMS)     (ANGSTROMS)
 
     1       C         -0.07310000  *   0.14120000  *  -0.04890000  *
     2       C         -1.31590000  *   0.96640000  *  -0.38850000  *
     3       C          1.18090000  *   0.91340000  *  -0.46380000  *
     4       C         -0.12400000  *  -1.19050000  *  -0.80050000  *
     5       C          3.67930000  *   0.90520000  *  -0.44480000  *
     6       C          2.41220000  *   0.11510000  *   1.55840000  *
     7       H          0.93620000  *  -2.18500000  *   0.65730000  *
     8       H          0.96090000  *  -2.94000000  *  -0.82440000  *
     9       O         -2.43530000  *  -0.79090000  *   0.71170000  *
    10       O         -3.75680000  *   0.80610000  *  -0.05410000  *
    11       C         -2.54340000  *   0.26260000  *   0.13010000  *
    12       H         -4.51430000  *   0.31780000  *   0.29630000  *
    13       C          2.42400000  *   0.17020000  *   0.02940000  *
    14       N          0.97290000  *  -2.05360000  *  -0.34240000  *
    15       H         -0.04480000  *  -0.04810000  *   1.02420000  *
    16       H         -1.23730000  *   1.94950000  *   0.07570000  *
    17       H         -1.39200000  *   1.08030000  *  -1.46990000  *
    18       H          1.21400000  *   0.99580000  *  -1.55020000  *
    19       H          1.15560000  *   1.91060000  *  -0.02430000  *
    20       H         -1.07780000  *  -1.68110000  *  -0.60620000  *
    21       H         -0.02040000  *  -1.00810000  *  -1.87010000  *
    22       H          2.42370000  *  -0.84380000  *  -0.37070000  *
    23       H          3.67960000  *   1.91910000  *  -0.04480000  *
    24       H          4.56490000  *   0.37570000  *  -0.09350000  *
    25       H          3.68770000  *   0.94440000  *  -1.53410000  *
    26       H          3.29780000  *  -0.41430000  *   1.90970000  *
    27       H          2.41250000  *   1.12910000  *   1.95840000  *
    28       H          1.51790000  *  -0.40850000  *   1.89620000  *
 


          CARTESIAN COORDINATES 

    NO.       ATOM         X         Y         Z

     1         C       -0.0731    0.1412   -0.0489
     2         C       -1.3159    0.9664   -0.3885
     3         C        1.1809    0.9134   -0.4638
     4         C       -0.1240   -1.1905   -0.8005
     5         C        3.6793    0.9052   -0.4448
     6         C        2.4122    0.1151    1.5584
     7         H        0.9362   -2.1850    0.6573
     8         H        0.9609   -2.9400   -0.8244
     9         O       -2.4353   -0.7909    0.7117
    10         O       -3.7568    0.8061   -0.0541
    11         C       -2.5434    0.2626    0.1301
    12         H       -4.5143    0.3178    0.2963
    13         C        2.4240    0.1702    0.0294
    14         N        0.9729   -2.0536   -0.3424
    15         H       -0.0448   -0.0481    1.0242
    16         H       -1.2373    1.9495    0.0757
    17         H       -1.3920    1.0803   -1.4699
    18         H        1.2140    0.9958   -1.5502
    19         H        1.1556    1.9106   -0.0243
    20         H       -1.0778   -1.6811   -0.6062
    21         H       -0.0204   -1.0081   -1.8701
    22         H        2.4237   -0.8438   -0.3707
    23         H        3.6796    1.9191   -0.0448
    24         H        4.5649    0.3757   -0.0935
    25         H        3.6877    0.9444   -1.5341
    26         H        3.2978   -0.4143    1.9097
    27         H        2.4125    1.1291    1.9584
    28         H        1.5179   -0.4085    1.8962

     ===================== shared-memory parallel CPU Section ======================
     **                                                                           **
     **  MOPAC calculations will run in shared-memory parallel CPUs               **
     **                                                                           **
     **  Number of Threads =  2                                                   **
     **                                                                           **
     **                                                                           **
     **  For information on this work, see:                                       **
     **                                                                           **
     **  Maia, J.D.C., et al., J. Chem. Theory Comput. 2012, 8, 3072-3081.        **
     **        DOI: 10.1021/ct3004645.                                            **
     **                                                                           **
     ===================== shared-memory parallel CPU Section ======================
      


 General Reference for PM7:
 "Optimization of Parameters for Semiempirical Methods VI: More Modifications to the 
 NDDO Approximations and Re-optimization of Parameters", J. J. P. Stewart, J. Mol. Mod., 1:32, 19 (2013)
 http://www.springerlink.com/openurl.asp?genre=article&id=doi:10.1007/s00894-012-1667-x

           Empirical Formula: C8 H17 N O2  =    28 atoms



      MOLECULAR POINT GROUP   :   C1  


      RHF CALCULATION, NO. OF DOUBLY OCCUPIED LEVELS =   33

      Geometry optimization using BFGS
 CYCLE:     1 TIME:   0.023 TIME LEFT:  2.00D  GRAD.:    81.119 HEAT: -113.2593    
 CYCLE:     2 TIME:   0.016 TIME LEFT:  2.00D  GRAD.:    64.393 HEAT: -114.5389    
 CYCLE:     3 TIME:   0.016 TIME LEFT:  2.00D  GRAD.:    48.675 HEAT: -116.0604    
 CYCLE:     4 TIME:   0.016 TIME LEFT:  2.00D  GRAD.:    34.428 HEAT: -116.9838    
 CYCLE:     5 TIME:   0.016 TIME LEFT:  2.00D  GRAD.:    41.509 HEAT: -117.6425    
 CYCLE:     6 TIME:   0.008 TIME LEFT:  2.00D  GRAD.:    63.461 HEAT: -117.9164    
 CYCLE:     7 TIME:   0.016 TIME LEFT:  2.00D  GRAD.:    41.660 HEAT: -118.3703    
 CYCLE:     8 TIME:   0.008 TIME LEFT:  2.00D  GRAD.:    26.952 HEAT: -119.0897    
 CYCLE:     9 TIME:   0.008 TIME LEFT:  2.00D  GRAD.:    41.963 HEAT: -119.0928    
 CYCLE:    10 TIME:   0.016 TIME LEFT:  2.00D  GRAD.:    35.488 HEAT: -119.6474    
 CYCLE:    11 TIME:   0.016 TIME LEFT:  2.00D  GRAD.:    25.075 HEAT: -120.1826    
 CYCLE:    12 TIME:   0.016 TIME LEFT:  2.00D  GRAD.:    18.502 HEAT: -120.6494    
 CYCLE:    13 TIME:   0.016 TIME LEFT:  2.00D  GRAD.:    15.378 HEAT: -121.1491    
 CYCLE:    14 TIME:   0.008 TIME LEFT:  2.00D  GRAD.:    15.041 HEAT: -121.5772    
 CYCLE:    15 TIME:   0.008 TIME LEFT:  2.00D  GRAD.:    17.686 HEAT: -121.7525    
 CYCLE:    16 TIME:   0.008 TIME LEFT:  2.00D  GRAD.:    13.340 HEAT: -121.9633    
 CYCLE:    17 TIME:   0.008 TIME LEFT:  2.00D  GRAD.:    11.510 HEAT: -122.1390    
 CYCLE:    18 TIME:   0.016 TIME LEFT:  2.00D  GRAD.:    10.288 HEAT: -122.3419    
 CYCLE:    19 TIME:   0.008 TIME LEFT:  2.00D  GRAD.:    12.425 HEAT: -122.6122    
 CYCLE:    20 TIME:   0.016 TIME LEFT:  2.00D  GRAD.:    10.311 HEAT: -122.7516    
 CYCLE:    21 TIME:   0.008 TIME LEFT:  2.00D  GRAD.:     6.983 HEAT: -122.9130    
 CYCLE:    22 TIME:   0.016 TIME LEFT:  2.00D  GRAD.:     7.609 HEAT: -122.9792    
 CYCLE:    23 TIME:   0.008 TIME LEFT:  2.00D  GRAD.:     4.650 HEAT: -123.0156    
 CYCLE:    24 TIME:   0.016 TIME LEFT:  2.00D  GRAD.:     3.444 HEAT: -123.0469    
 CYCLE:    25 TIME:   0.016 TIME LEFT:  2.00D  GRAD.:     2.907 HEAT: -123.0740    
 CYCLE:    26 TIME:   0.008 TIME LEFT:  2.00D  GRAD.:     3.191 HEAT: -123.0905    
 CYCLE:    27 TIME:   0.008 TIME LEFT:  2.00D  GRAD.:     3.214 HEAT: -123.1141    
 CYCLE:    28 TIME:   0.016 TIME LEFT:  2.00D  GRAD.:     4.104 HEAT: -123.1299    
 CYCLE:    29 TIME:   0.008 TIME LEFT:  2.00D  GRAD.:     2.642 HEAT: -123.1426    
 CYCLE:    30 TIME:   0.016 TIME LEFT:  2.00D  GRAD.:     2.528 HEAT: -123.1547    
 CYCLE:    31 TIME:   0.008 TIME LEFT:  2.00D  GRAD.:     3.425 HEAT: -123.1711    
 CYCLE:    32 TIME:   0.016 TIME LEFT:  2.00D  GRAD.:     5.006 HEAT: -123.2012    
 CYCLE:    33 TIME:   0.016 TIME LEFT:  2.00D  GRAD.:     5.806 HEAT: -123.2349    
 CYCLE:    34 TIME:   0.016 TIME LEFT:  2.00D  GRAD.:     5.011 HEAT: -123.2680    
 CYCLE:    35 TIME:   0.008 TIME LEFT:  2.00D  GRAD.:     4.514 HEAT: -123.2957    
 CYCLE:    36 TIME:   0.016 TIME LEFT:  2.00D  GRAD.:     4.560 HEAT: -123.3384    
 CYCLE:    37 TIME:   0.008 TIME LEFT:  2.00D  GRAD.:     4.566 HEAT: -123.3805    
 CYCLE:    38 TIME:   0.016 TIME LEFT:  2.00D  GRAD.:     5.429 HEAT: -123.4219    
 CYCLE:    39 TIME:   0.008 TIME LEFT:  2.00D  GRAD.:     5.086 HEAT: -123.4763    
 CYCLE:    40 TIME:   0.016 TIME LEFT:  2.00D  GRAD.:     4.739 HEAT: -123.5018    
 CYCLE:    41 TIME:   0.008 TIME LEFT:  2.00D  GRAD.:     3.685 HEAT: -123.5288    
 CYCLE:    42 TIME:   0.016 TIME LEFT:  2.00D  GRAD.:     3.774 HEAT: -123.5465    
 CYCLE:    43 TIME:   0.008 TIME LEFT:  2.00D  GRAD.:     5.930 HEAT: -123.5743    
 CYCLE:    44 TIME:   0.016 TIME LEFT:  2.00D  GRAD.:     4.489 HEAT: -123.5981    
 CYCLE:    45 TIME:   0.016 TIME LEFT:  2.00D  GRAD.:     4.366 HEAT: -123.6512    
 CYCLE:    46 TIME:   0.016 TIME LEFT:  2.00D  GRAD.:     5.456 HEAT: -123.6691    
 CYCLE:    47 TIME:   0.008 TIME LEFT:  2.00D  GRAD.:     6.012 HEAT: -123.7217    
 CYCLE:    48 TIME:   0.016 TIME LEFT:  2.00D  GRAD.:     7.032 HEAT: -123.8064    
 CYCLE:    49 TIME:   0.016 TIME LEFT:  2.00D  GRAD.:    12.146 HEAT: -123.8856    
 CYCLE:    50 TIME:   0.008 TIME LEFT:  2.00D  GRAD.:    18.744 HEAT: -124.0187    
 CYCLE:    51 TIME:   0.008 TIME LEFT:  2.00D  GRAD.:    15.465 HEAT: -124.2675    
 CYCLE:    52 TIME:   0.016 TIME LEFT:  2.00D  GRAD.:    14.276 HEAT: -124.4066    
 CYCLE:    53 TIME:   0.008 TIME LEFT:  2.00D  GRAD.:    12.005 HEAT: -124.6870    
 CYCLE:    54 TIME:   0.016 TIME LEFT:  2.00D  GRAD.:    14.484 HEAT: -124.8064    
 CYCLE:    55 TIME:   0.016 TIME LEFT:  2.00D  GRAD.:    15.816 HEAT: -124.9006    
 CYCLE:    56 TIME:   0.008 TIME LEFT:  2.00D  GRAD.:    16.212 HEAT: -124.9890    
 CYCLE:    57 TIME:   0.008 TIME LEFT:  2.00D  GRAD.:     5.184 HEAT: -125.1412    
 CYCLE:    58 TIME:   0.016 TIME LEFT:  2.00D  GRAD.:     3.902 HEAT: -125.1815    
 CYCLE:    59 TIME:   0.008 TIME LEFT:  2.00D  GRAD.:     4.072 HEAT: -125.2148    
 CYCLE:    60 TIME:   0.008 TIME LEFT:  2.00D  GRAD.:     3.845 HEAT: -125.2368    
 CYCLE:    61 TIME:   0.008 TIME LEFT:  2.00D  GRAD.:     2.818 HEAT: -125.2530    
 CYCLE:    62 TIME:   0.008 TIME LEFT:  2.00D  GRAD.:     2.750 HEAT: -125.2691    
 CYCLE:    63 TIME:   0.016 TIME LEFT:  2.00D  GRAD.:     2.582 HEAT: -125.2851    
 CYCLE:    64 TIME:   0.016 TIME LEFT:  2.00D  GRAD.:     2.738 HEAT: -125.3026    
 CYCLE:    65 TIME:   0.031 TIME LEFT:  2.00D  GRAD.:     2.866 HEAT: -125.3211    
 CYCLE:    66 TIME:   0.016 TIME LEFT:  2.00D  GRAD.:     2.827 HEAT: -125.3356    
 CYCLE:    67 TIME:   0.008 TIME LEFT:  2.00D  GRAD.:     2.600 HEAT: -125.3502    
 CYCLE:    68 TIME:   0.008 TIME LEFT:  2.00D  GRAD.:     2.635 HEAT: -125.3673    
 CYCLE:    69 TIME:   0.016 TIME LEFT:  2.00D  GRAD.:     2.808 HEAT: -125.3879    
 CYCLE:    70 TIME:   0.008 TIME LEFT:  2.00D  GRAD.:     2.710 HEAT: -125.4050    
 CYCLE:    71 TIME:   0.016 TIME LEFT:  2.00D  GRAD.:     2.225 HEAT: -125.4172    
 CYCLE:    72 TIME:   0.016 TIME LEFT:  2.00D  GRAD.:     2.190 HEAT: -125.4269    
 CYCLE:    73 TIME:   0.008 TIME LEFT:  2.00D  GRAD.:     2.084 HEAT: -125.4358    
 CYCLE:    74 TIME:   0.008 TIME LEFT:  2.00D  GRAD.:     2.064 HEAT: -125.4445    
 TEST ON GRADIENT SATISFIED
                    HOWEVER, A COMPONENT OF GRADIENT IS LARGER THAN  0.20

 CYCLE:    75 TIME:   0.016 TIME LEFT:  2.00D  GRAD.:     1.558 HEAT: -125.4506    
 TEST ON GRADIENT SATISFIED
                    HOWEVER, A COMPONENT OF GRADIENT IS LARGER THAN  0.20

 CYCLE:    76 TIME:   0.008 TIME LEFT:  2.00D  GRAD.:     1.153 HEAT: -125.4538    
 TEST ON GRADIENT SATISFIED
                    HOWEVER, A COMPONENT OF GRADIENT IS LARGER THAN  0.20

 CYCLE:    77 TIME:   0.016 TIME LEFT:  2.00D  GRAD.:     1.274 HEAT: -125.4552    
 TEST ON GRADIENT SATISFIED
                    HOWEVER, A COMPONENT OF GRADIENT IS LARGER THAN  0.20

 CYCLE:    78 TIME:   0.008 TIME LEFT:  2.00D  GRAD.:     1.031 HEAT: -125.4567    
 TEST ON GRADIENT SATISFIED
                    HOWEVER, A COMPONENT OF GRADIENT IS LARGER THAN  0.20

 CYCLE:    79 TIME:   0.008 TIME LEFT:  2.00D  GRAD.:     0.816 HEAT: -125.4578    
 TEST ON GRADIENT SATISFIED
PETERS TEST SATISFIED

 -------------------------------------------------------------------------------
 BFGS PM7 MMOK PRECISE
 C8H17NO2



     PETERS TEST WAS SATISFIED IN BFGS OPTIMIZATION           
     SCF FIELD WAS ACHIEVED                                   


                              PM7 CALCULATION
                                                       MOPAC2012 (Version: 14.208M)
                                                       Mon Mar 23 22:52:50 2015
                                                       No. of days left = 126




          FINAL HEAT OF FORMATION =       -125.45908 KCAL/MOL =    -524.92081 KJ/MOL


          TOTAL ENERGY            =      -1990.21711 EV
          ELECTRONIC ENERGY       =     -11135.96646 EV  POINT GROUP:     C1  
          CORE-CORE REPULSION     =       9145.74935 EV
          COSMO AREA              =        209.30 SQUARE ANGSTROMS
          COSMO VOLUME            =        220.42 CUBIC ANGSTROMS

          GRADIENT NORM           =          0.63996
          IONIZATION POTENTIAL    =          9.223392 EV
          HOMO LUMO ENERGIES (EV) =         -9.223  0.769
          NO. OF FILLED LEVELS    =         33
          MOLECULAR WEIGHT        =        159.228

          MOLECULAR DIMENSIONS (Angstroms)

            Atom       Atom       Distance
            H    24    H    12     9.13746
            H     8    H    27     5.53791
            H    28    H    17     3.73736


          SCF CALCULATIONS        =        100
 
          WALL-CLOCK TIME         =          1.055 SECONDS
          COMPUTATION TIME        =          1.889 SECONDS




   ATOM   CHEMICAL          X               Y               Z
  NUMBER   SYMBOL      (ANGSTROMS)     (ANGSTROMS)     (ANGSTROMS)
 
     1       C          0.00740623  *  -0.01328206  *  -0.11218791  *
     2       C         -1.28638693  *   0.81035176  *  -0.24383402  *
     3       C          1.21065045  *   0.90963139  *  -0.37790035  *
     4       C          0.01282227  *  -1.21536109  *  -1.08802546  *
     5       C          3.71632842  *   0.97867566  *  -0.58806103  *
     6       C          2.67605661  *   0.38228104  *   1.61974981  *
     7       H         -1.05324934  *  -2.35901955  *   0.26526864  *
     8       H         -0.39397757  *  -3.24567208  *  -0.94775478  *
     9       O         -2.61455252  *  -1.03368337  *   0.68599744  *
    10       O         -3.60571972  *   0.82461155  *  -0.01502739  *
    11       C         -2.49890762  *   0.06083049  *   0.19881573  *
    12       H         -4.44984727  *   0.39147630  *   0.26218203  *
    13       C          2.53565893  *   0.27825282  *   0.09692075  *
    14       N         -0.24326716  *  -2.46440745  *  -0.33166820  *
    15       H          0.08222772  *  -0.40506953  *   0.93645587  *
    16       H         -1.20653678  *   1.74540150  *   0.35856469  *
    17       H         -1.42186637  *   1.16484902  *  -1.28947354  *
    18       H          1.27126069  *   1.14586724  *  -1.45597571  *
    19       H          1.07019713  *   1.88128999  *   0.13114414  *
    20       H         -0.71094745  *  -1.05320378  *  -1.91262878  *
    21       H          1.01291198  *  -1.32469405  *  -1.56589328  *
    22       H          2.54658412  *  -0.80443489  *  -0.18609465  *
    23       H          3.72273916  *   2.05306816  *  -0.37931025  *
    24       H          4.67201745  *   0.57236200  *  -0.23979768  *
    25       H          3.68376355  *   0.84967145  *  -1.67455973  *
    26       H          3.60043685  *  -0.09549842  *   1.96269830  *
    27       H          2.69672243  *   1.42344466  *   1.95501101  *
    28       H          1.84529303  *  -0.11900295  *   2.13077840  *
                             CARTESIAN COORDINATES

   1    C        0.007406230    -0.013282064    -0.112187909
   2    C       -1.286386926     0.810351759    -0.243834019
   3    C        1.210650445     0.909631391    -0.377900350
   4    C        0.012822267    -1.215361095    -1.088025458
   5    C        3.716328417     0.978675658    -0.588061029
   6    C        2.676056607     0.382281037     1.619749806
   7    H       -1.053249339    -2.359019549     0.265268639
   8    H       -0.393977570    -3.245672077    -0.947754777
   9    O       -2.614552524    -1.033683374     0.685997440
  10    O       -3.605719719     0.824611549    -0.015027386
  11    C       -2.498907620     0.060830495     0.198815733
  12    H       -4.449847270     0.391476296     0.262182034
  13    C        2.535658932     0.278252817     0.096920754
  14    N       -0.243267158    -2.464407450    -0.331668197
  15    H        0.082227718    -0.405069529     0.936455865
  16    H       -1.206536780     1.745401501     0.358564686
  17    H       -1.421866369     1.164849023    -1.289473542
  18    H        1.271260693     1.145867241    -1.455975714
  19    H        1.070197125     1.881289990     0.131144143
  20    H       -0.710947449    -1.053203779    -1.912628782
  21    H        1.012911977    -1.324694049    -1.565893285
  22    H        2.546584124    -0.804434888    -0.186094651
  23    H        3.722739160     2.053068161    -0.379310246
  24    H        4.672017454     0.572362005    -0.239797683
  25    H        3.683763545     0.849671451    -1.674559727
  26    H        3.600436848    -0.095498423     1.962698300
  27    H        2.696722428     1.423444657     1.955011007
  28    H        1.845293026    -0.119002951     2.130778402


           Empirical Formula: C8 H17 N O2  =    28 atoms



      MOLECULAR POINT GROUP   :   C1  


                  EIGENVALUES  
 -35.09935 -31.71780 -29.98242 -29.93026 -28.01371 -25.10592 -23.97153 -22.94337
 -21.33749 -19.52190 -19.12637 -17.67328 -17.02232 -16.81493 -15.98831 -15.74855
 -15.52445 -14.86538 -14.57097 -14.43113 -13.86487 -13.65979 -13.33260 -12.76291
 -12.69522 -12.43509 -12.31179 -12.04517 -11.63644 -11.44319 -11.26932 -11.23775
  -9.22339   0.76859   1.85313   2.94076   3.47819   3.69109   3.92218   4.05813
   4.23741   4.40644   4.50600   4.74313   4.80759   5.25489   5.44928   5.61001
   5.73806   5.75516   5.81075   5.87418   5.89719   5.98296   6.17847   6.40033
   6.46490   6.67863   6.97891   7.13647   7.51302


              NET ATOMIC CHARGES AND DIPOLE CONTRIBUTIONS

  ATOM NO.   TYPE          CHARGE      No. of ELECS.   s-Pop       p-Pop       
    1          C          -0.098901        4.0989     1.06881     3.03009
    2          C          -0.372574        4.3726     1.07220     3.30038
    3          C          -0.303495        4.3035     1.06829     3.23520
    4          C          -0.118373        4.1184     1.07064     3.04774
    5          C          -0.461382        4.4614     1.05677     3.40462
    6          C          -0.453169        4.4532     1.05606     3.39711
    7          H           0.271105        0.7289     0.72890
    8          H           0.244297        0.7557     0.75570
    9          O          -0.524528        6.5245     1.87564     4.64889
   10          O          -0.571641        6.5716     1.83883     4.73281
   11          C           0.658816        3.3412     1.12022     2.22096
   12          H           0.358217        0.6418     0.64178
   13          C          -0.056163        4.0562     1.05754     2.99862
   14          N          -0.652327        5.6523     1.64745     4.00488
   15          H           0.173100        0.8269     0.82690
   16          H           0.186063        0.8139     0.81394
   17          H           0.184081        0.8159     0.81592
   18          H           0.138373        0.8616     0.86163
   19          H           0.140227        0.8598     0.85977
   20          H           0.107076        0.8929     0.89292
   21          H           0.145687        0.8543     0.85431
   22          H           0.146432        0.8536     0.85357
   23          H           0.142298        0.8577     0.85770
   24          H           0.144987        0.8550     0.85501
   25          H           0.139870        0.8601     0.86013
   26          H           0.142339        0.8577     0.85766
   27          H           0.139610        0.8604     0.86039
   28          H           0.149973        0.8500     0.85003
 DIPOLE           X         Y         Z       TOTAL
 POINT-CHG.     0.939     2.316    -1.418     2.873
 HYBRID        -1.530    -0.080    -0.281     1.558
 SUM           -0.592     2.236    -1.699     2.870


          ATOMIC ORBITAL ELECTRON POPULATIONS

    Atom      s        px        py        pz   
    1  C   1.06881   0.93260   0.97950   1.11799
    2  C   1.07220   1.00808   1.10817   1.18413
    3  C   1.06829   1.00710   1.08157   1.14654
    4  C   1.07064   1.13940   0.90678   1.00155
    5  C   1.05677   1.10627   1.15299   1.14535
    6  C   1.05606   1.17513   1.17035   1.05163
    7  H   0.72890
    8  H   0.75570
    9  O   1.87564   1.84568   1.31960   1.48360
   10  O   1.83883   1.33592   1.58265   1.81423
   11  C   1.12022   0.79668   0.75708   0.66719
   12  H   0.64178
   13  C   1.05754   0.94334   1.08826   0.96702
   14  N   1.64745   1.54830   1.13134   1.32524
   15  H   0.82690
   16  H   0.81394
   17  H   0.81592
   18  H   0.86163
   19  H   0.85977
   20  H   0.89292
   21  H   0.85431
   22  H   0.85357
   23  H   0.85770
   24  H   0.85501
   25  H   0.86013
   26  H   0.85766
   27  H   0.86039
   28  H   0.85003



 TOTAL JOB TIME:             1.06 SECONDS

 == MOPAC DONE ==
