 *******************************************************************************
 ** Site#: 6541         For non-commercial use only     Version 14.208M 64BITS**
 *******************************************************************************
 ** Cite this work as:                                                        **
 **                                                                           **
 ** (a) MOPAC2012, James J. P. Stewart, Stewart Computational Chemistry,      **
 **  Version 14.208M web: HTTP://OpenMOPAC.net         Days remaining: 126    **
 **                                                                           **
 **                                 AND                                       **
 **                                                                           **
 ** (b) Maia, J.D.C., et al., J. Chem. Theory Comput. 2012, 8, 3072-3081.     **
 **                DOI: 10.1021/ct3004645.                                    **
 *******************************************************************************
 **                                                                           **
 **                                MOPAC2012                                  **
 **                                                                           **
 *******************************************************************************

                            PM7 CALCULATION RESULTS


 *******************************************************************************
 *  CALCULATION DONE:                                Mon Mar 23 22:56:27 2015  *
 *  PM7        - The PM7 Hamiltonian to be used
 *  MMOK       - APPLY MM CORRECTION TO CONH BARRIER
 *  PRECISE    - CRITERIA TO BE INCREASED BY 100 TIMES
 *  BFGS       - USE THE BFGS GEOMETRY OPTIMIZER
 *  T=         - A TIME OF 172800.0 SECONDS REQUESTED
 *  DUMP=N     - RESTART FILE WRITTEN EVERY  7200.000 SECONDS
 *******************************************************************************
 BFGS PM7 MMOK PRECISE
 C6H12O6

   ATOM   CHEMICAL          X               Y               Z
  NUMBER   SYMBOL      (ANGSTROMS)     (ANGSTROMS)     (ANGSTROMS)
 
     1       O         -3.97560000  *  -0.26650000  *  -0.40090000  *
     2       C         -3.12160000  *  -0.73930000  *   0.31010000  *
     3       C         -1.92810000  *   0.09040000  *   0.70800000  *
     4       H         -1.89500000  *   0.18210000  *   1.79360000  *
     5       O         -2.03500000  *   1.38990000  *   0.12320000  *
     6       C         -0.64840000  *  -0.58740000  *   0.21410000  *
     7       H         -0.52080000  *  -1.54060000  *   0.72710000  *
     8       O         -0.74160000  *  -0.81290000  *  -1.19390000  *
     9       C          0.55230000  *   0.31440000  *   0.50780000  *
    10       H          0.67650000  *   0.41430000  *   1.58600000  *
    11       O          0.33170000  *   1.60370000  *  -0.06780000  *
    12       C          1.81460000  *  -0.30440000  *  -0.09590000  *
    13       H          1.69040000  *  -0.40430000  *  -1.17420000  *
    14       O          2.03520000  *  -1.59360000  *   0.47960000  *
    15       C          3.01520000  *   0.59740000  *   0.19770000  *
    16       O          4.17190000  *   0.08090000  *  -0.46370000  *
    17       H         -3.21530000  *  -1.75520000  *   0.66440000  *
    18       H         -2.06950000  *   1.38470000  *  -0.84320000  *
    19       H         -0.85650000  *  -0.00620000  *  -1.71470000  *
    20       H          0.21240000  *   1.59080000  *  -1.02730000  *
    21       H          2.15450000  *  -1.58080000  *   1.43920000  *
    22       H          2.80970000  *   1.60500000  *  -0.16350000  *
    23       H          3.19380000  *   0.62610000  *   1.27260000  *
    24       H          4.97270000  *   0.60390000  *  -0.32140000  *
 


          CARTESIAN COORDINATES 

    NO.       ATOM         X         Y         Z

     1         O       -3.9756   -0.2665   -0.4009
     2         C       -3.1216   -0.7393    0.3101
     3         C       -1.9281    0.0904    0.7080
     4         H       -1.8950    0.1821    1.7936
     5         O       -2.0350    1.3899    0.1232
     6         C       -0.6484   -0.5874    0.2141
     7         H       -0.5208   -1.5406    0.7271
     8         O       -0.7416   -0.8129   -1.1939
     9         C        0.5523    0.3144    0.5078
    10         H        0.6765    0.4143    1.5860
    11         O        0.3317    1.6037   -0.0678
    12         C        1.8146   -0.3044   -0.0959
    13         H        1.6904   -0.4043   -1.1742
    14         O        2.0352   -1.5936    0.4796
    15         C        3.0152    0.5974    0.1977
    16         O        4.1719    0.0809   -0.4637
    17         H       -3.2153   -1.7552    0.6644
    18         H       -2.0695    1.3847   -0.8432
    19         H       -0.8565   -0.0062   -1.7147
    20         H        0.2124    1.5908   -1.0273
    21         H        2.1545   -1.5808    1.4392
    22         H        2.8097    1.6050   -0.1635
    23         H        3.1938    0.6261    1.2726
    24         H        4.9727    0.6039   -0.3214

     ===================== shared-memory parallel CPU Section ======================
     **                                                                           **
     **  MOPAC calculations will run in shared-memory parallel CPUs               **
     **                                                                           **
     **  Number of Threads =  2                                                   **
     **                                                                           **
     **                                                                           **
     **  For information on this work, see:                                       **
     **                                                                           **
     **  Maia, J.D.C., et al., J. Chem. Theory Comput. 2012, 8, 3072-3081.        **
     **        DOI: 10.1021/ct3004645.                                            **
     **                                                                           **
     ===================== shared-memory parallel CPU Section ======================
      


 General Reference for PM7:
 "Optimization of Parameters for Semiempirical Methods VI: More Modifications to the 
 NDDO Approximations and Re-optimization of Parameters", J. J. P. Stewart, J. Mol. Mod., 1:32, 19 (2013)
 http://www.springerlink.com/openurl.asp?genre=article&id=doi:10.1007/s00894-012-1667-x

           Empirical Formula: C6 H12 O6  =    24 atoms



      MOLECULAR POINT GROUP   :   C1  


      RHF CALCULATION, NO. OF DOUBLY OCCUPIED LEVELS =   36

      Geometry optimization using BFGS
 CYCLE:     1 TIME:   0.016 TIME LEFT:  2.00D  GRAD.:    49.790 HEAT: -248.5706    
 CYCLE:     2 TIME:   0.016 TIME LEFT:  2.00D  GRAD.:    79.211 HEAT: -249.3619    
 CYCLE:     3 TIME:   0.008 TIME LEFT:  2.00D  GRAD.:    71.218 HEAT: -250.7395    
 CYCLE:     4 TIME:   0.016 TIME LEFT:  2.00D  GRAD.:    36.046 HEAT: -252.2301    
 CYCLE:     5 TIME:   0.008 TIME LEFT:  2.00D  GRAD.:    27.201 HEAT: -252.7492    
 CYCLE:     6 TIME:   0.008 TIME LEFT:  2.00D  GRAD.:    34.580 HEAT: -253.3036    
 CYCLE:     7 TIME:   0.008 TIME LEFT:  2.00D  GRAD.:    21.278 HEAT: -254.0156    
 CYCLE:     8 TIME:   0.008 TIME LEFT:  2.00D  GRAD.:    19.132 HEAT: -254.8426    
 CYCLE:     9 TIME:   0.008 TIME LEFT:  2.00D  GRAD.:    43.532 HEAT: -255.0013    
 CYCLE:    10 TIME:   0.016 TIME LEFT:  2.00D  GRAD.:    20.723 HEAT: -255.8497    
 CYCLE:    11 TIME:   0.008 TIME LEFT:  2.00D  GRAD.:    24.121 HEAT: -256.4552    
 CYCLE:    12 TIME:   0.016 TIME LEFT:  2.00D  GRAD.:    23.969 HEAT: -256.8159    
 CYCLE:    13 TIME:   0.008 TIME LEFT:  2.00D  GRAD.:    18.991 HEAT: -257.2976    
 CYCLE:    14 TIME:   0.008 TIME LEFT:  2.00D  GRAD.:    23.974 HEAT: -257.5542    
 CYCLE:    15 TIME:   0.016 TIME LEFT:  2.00D  GRAD.:    13.192 HEAT: -257.8522    
 CYCLE:    16 TIME:   0.008 TIME LEFT:  2.00D  GRAD.:    16.057 HEAT: -258.1148    
 CYCLE:    17 TIME:   0.008 TIME LEFT:  2.00D  GRAD.:    16.402 HEAT: -258.5322    
 CYCLE:    18 TIME:   0.008 TIME LEFT:  2.00D  GRAD.:    17.787 HEAT: -258.7314    
 CYCLE:    19 TIME:   0.008 TIME LEFT:  2.00D  GRAD.:    11.801 HEAT: -259.0122    
 CYCLE:    20 TIME:   0.016 TIME LEFT:  2.00D  GRAD.:    16.515 HEAT: -259.1831    
 CYCLE:    21 TIME:   0.008 TIME LEFT:  2.00D  GRAD.:    21.116 HEAT: -259.5971    
 CYCLE:    22 TIME:   0.016 TIME LEFT:  2.00D  GRAD.:    22.647 HEAT: -260.2861    
 CYCLE:    23 TIME:   0.008 TIME LEFT:  2.00D  GRAD.:    27.022 HEAT: -260.7042    
 CYCLE:    24 TIME:   0.016 TIME LEFT:  2.00D  GRAD.:    42.583 HEAT: -260.9498    
 CYCLE:    25 TIME:   0.008 TIME LEFT:  2.00D  GRAD.:    29.826 HEAT: -261.6202    
 CYCLE:    26 TIME:   0.016 TIME LEFT:  2.00D  GRAD.:    18.759 HEAT: -262.3642    
 CYCLE:    27 TIME:   0.008 TIME LEFT:  2.00D  GRAD.:    25.642 HEAT: -262.8004    
 CYCLE:    28 TIME:   0.008 TIME LEFT:  2.00D  GRAD.:    27.338 HEAT: -263.1026    
 CYCLE:    29 TIME:   0.008 TIME LEFT:  2.00D  GRAD.:    16.950 HEAT: -263.4816    
 CYCLE:    30 TIME:   0.008 TIME LEFT:  2.00D  GRAD.:    12.008 HEAT: -263.6891    
 CYCLE:    31 TIME:   0.016 TIME LEFT:  2.00D  GRAD.:    12.563 HEAT: -263.8697    
 CYCLE:    32 TIME:   0.008 TIME LEFT:  2.00D  GRAD.:     9.960 HEAT: -264.0313    
 CYCLE:    33 TIME:   0.008 TIME LEFT:  2.00D  GRAD.:    11.200 HEAT: -264.1445    
 CYCLE:    34 TIME:   0.016 TIME LEFT:  2.00D  GRAD.:    12.164 HEAT: -264.2525    
 CYCLE:    35 TIME:   0.008 TIME LEFT:  2.00D  GRAD.:    10.448 HEAT: -264.3706    
 CYCLE:    36 TIME:   0.008 TIME LEFT:  2.00D  GRAD.:    10.150 HEAT: -264.4816    
 CYCLE:    37 TIME:   0.008 TIME LEFT:  2.00D  GRAD.:     8.334 HEAT: -264.5806    
 CYCLE:    38 TIME:   0.016 TIME LEFT:  2.00D  GRAD.:    12.381 HEAT: -264.8029    
 CYCLE:    39 TIME:   0.008 TIME LEFT:  2.00D  GRAD.:    15.533 HEAT: -264.8861    
 CYCLE:    40 TIME:   0.008 TIME LEFT:  2.00D  GRAD.:    13.009 HEAT: -265.0994    
 CYCLE:    41 TIME:   0.016 TIME LEFT:  2.00D  GRAD.:    11.412 HEAT: -265.3306    
 CYCLE:    42 TIME:   0.008 TIME LEFT:  2.00D  GRAD.:    10.646 HEAT: -265.4799    
 CYCLE:    43 TIME:   0.008 TIME LEFT:  2.00D  GRAD.:     9.344 HEAT: -265.6307    
 CYCLE:    44 TIME:   0.008 TIME LEFT:  2.00D  GRAD.:     9.524 HEAT: -265.7957    
 CYCLE:    45 TIME:   0.008 TIME LEFT:  2.00D  GRAD.:     8.412 HEAT: -265.9031    
 CYCLE:    46 TIME:   0.016 TIME LEFT:  2.00D  GRAD.:     8.584 HEAT: -265.9898    
 CYCLE:    47 TIME:   0.008 TIME LEFT:  2.00D  GRAD.:     6.722 HEAT: -266.0299    
 CYCLE:    48 TIME:   0.008 TIME LEFT:  2.00D  GRAD.:     4.789 HEAT: -266.0696    
 CYCLE:    49 TIME:   0.008 TIME LEFT:  2.00D  GRAD.:     4.577 HEAT: -266.0989    
 CYCLE:    50 TIME:   0.008 TIME LEFT:  2.00D  GRAD.:     5.571 HEAT: -266.1363    
 CYCLE:    51 TIME:   0.008 TIME LEFT:  2.00D  GRAD.:     5.766 HEAT: -266.1768    
 CYCLE:    52 TIME:   0.016 TIME LEFT:  2.00D  GRAD.:     4.983 HEAT: -266.2112    
 CYCLE:    53 TIME:   0.008 TIME LEFT:  2.00D  GRAD.:     7.341 HEAT: -266.2590    
 CYCLE:    54 TIME:   0.016 TIME LEFT:  2.00D  GRAD.:     7.629 HEAT: -266.3079    
 CYCLE:    55 TIME:   0.016 TIME LEFT:  2.00D  GRAD.:    11.068 HEAT: -266.3812    
 CYCLE:    56 TIME:   0.008 TIME LEFT:  2.00D  GRAD.:     7.368 HEAT: -266.4609    
 CYCLE:    57 TIME:   0.016 TIME LEFT:  2.00D  GRAD.:    10.537 HEAT: -266.6238    
 CYCLE:    58 TIME:   0.008 TIME LEFT:  2.00D  GRAD.:    15.756 HEAT: -266.7333    
 CYCLE:    59 TIME:   0.008 TIME LEFT:  2.00D  GRAD.:    10.576 HEAT: -266.8486    
 CYCLE:    60 TIME:   0.008 TIME LEFT:  2.00D  GRAD.:     9.992 HEAT: -267.0220    
 CYCLE:    61 TIME:   0.008 TIME LEFT:  2.00D  GRAD.:     9.986 HEAT: -267.1116    
 CYCLE:    62 TIME:   0.016 TIME LEFT:  2.00D  GRAD.:    10.898 HEAT: -267.1698    
 CYCLE:    63 TIME:   0.008 TIME LEFT:  2.00D  GRAD.:     7.091 HEAT: -267.2474    
 CYCLE:    64 TIME:   0.008 TIME LEFT:  2.00D  GRAD.:     7.158 HEAT: -267.3068    
 CYCLE:    65 TIME:   0.016 TIME LEFT:  2.00D  GRAD.:     7.190 HEAT: -267.3819    
 CYCLE:    66 TIME:   0.016 TIME LEFT:  2.00D  GRAD.:     6.542 HEAT: -267.4494    
 CYCLE:    67 TIME:   0.008 TIME LEFT:  2.00D  GRAD.:     5.248 HEAT: -267.4943    
 CYCLE:    68 TIME:   0.008 TIME LEFT:  2.00D  GRAD.:     4.545 HEAT: -267.5345    
 CYCLE:    69 TIME:   0.008 TIME LEFT:  2.00D  GRAD.:     4.591 HEAT: -267.5690    
 CYCLE:    70 TIME:   0.008 TIME LEFT:  2.00D  GRAD.:     4.087 HEAT: -267.5902    
 CYCLE:    71 TIME:   0.008 TIME LEFT:  2.00D  GRAD.:     3.717 HEAT: -267.6077    
 CYCLE:    72 TIME:   0.016 TIME LEFT:  2.00D  GRAD.:     2.959 HEAT: -267.6220    
 CYCLE:    73 TIME:   0.008 TIME LEFT:  2.00D  GRAD.:     2.759 HEAT: -267.6376    
 CYCLE:    74 TIME:   0.008 TIME LEFT:  2.00D  GRAD.:     2.947 HEAT: -267.6543    
 CYCLE:    75 TIME:   0.008 TIME LEFT:  2.00D  GRAD.:     3.372 HEAT: -267.6717    
 CYCLE:    76 TIME:   0.016 TIME LEFT:  2.00D  GRAD.:     4.298 HEAT: -267.6911    
 CYCLE:    77 TIME:   0.008 TIME LEFT:  2.00D  GRAD.:     4.388 HEAT: -267.7114    
 CYCLE:    78 TIME:   0.008 TIME LEFT:  2.00D  GRAD.:     4.353 HEAT: -267.7336    
 CYCLE:    79 TIME:   0.008 TIME LEFT:  2.00D  GRAD.:     4.062 HEAT: -267.7557    
 CYCLE:    80 TIME:   0.008 TIME LEFT:  2.00D  GRAD.:     3.796 HEAT: -267.7750    
 CYCLE:    81 TIME:   0.008 TIME LEFT:  2.00D  GRAD.:     3.899 HEAT: -267.7943    
 CYCLE:    82 TIME:   0.016 TIME LEFT:  2.00D  GRAD.:     3.601 HEAT: -267.8157    
 CYCLE:    83 TIME:   0.008 TIME LEFT:  2.00D  GRAD.:     3.136 HEAT: -267.8343    
 CYCLE:    84 TIME:   0.008 TIME LEFT:  2.00D  GRAD.:     2.647 HEAT: -267.8504    
 CYCLE:    85 TIME:   0.016 TIME LEFT:  2.00D  GRAD.:     2.585 HEAT: -267.8630    
 CYCLE:    86 TIME:   0.008 TIME LEFT:  2.00D  GRAD.:     3.180 HEAT: -267.8769    
 CYCLE:    87 TIME:   0.008 TIME LEFT:  2.00D  GRAD.:     3.198 HEAT: -267.8917    
 CYCLE:    88 TIME:   0.008 TIME LEFT:  2.00D  GRAD.:     3.108 HEAT: -267.9096    
 CYCLE:    89 TIME:   0.016 TIME LEFT:  2.00D  GRAD.:     2.685 HEAT: -267.9237    
 CYCLE:    90 TIME:   0.008 TIME LEFT:  2.00D  GRAD.:     2.333 HEAT: -267.9326    
 CYCLE:    91 TIME:   0.008 TIME LEFT:  2.00D  GRAD.:     2.987 HEAT: -267.9434    
 CYCLE:    92 TIME:   0.008 TIME LEFT:  2.00D  GRAD.:     3.720 HEAT: -267.9701    
 CYCLE:    93 TIME:   0.016 TIME LEFT:  2.00D  GRAD.:     4.231 HEAT: -267.9872    
 CYCLE:    94 TIME:   0.016 TIME LEFT:  2.00D  GRAD.:     2.596 HEAT: -268.0015    
 CYCLE:    95 TIME:   0.008 TIME LEFT:  2.00D  GRAD.:     2.561 HEAT: -268.0128    
 CYCLE:    96 TIME:   0.016 TIME LEFT:  2.00D  GRAD.:     2.914 HEAT: -268.0236    
 CYCLE:    97 TIME:   0.016 TIME LEFT:  2.00D  GRAD.:     2.562 HEAT: -268.0362    
 CYCLE:    98 TIME:   0.008 TIME LEFT:  2.00D  GRAD.:     2.596 HEAT: -268.0481    
 CYCLE:    99 TIME:   0.008 TIME LEFT:  2.00D  GRAD.:     3.063 HEAT: -268.0616    
 CYCLE:   100 TIME:   0.008 TIME LEFT:  2.00D  GRAD.:     3.628 HEAT: -268.0779    
 CYCLE:   101 TIME:   0.008 TIME LEFT:  2.00D  GRAD.:     3.382 HEAT: -268.0910    
 CYCLE:   102 TIME:   0.008 TIME LEFT:  2.00D  GRAD.:     2.478 HEAT: -268.1030    
 CYCLE:   103 TIME:   0.008 TIME LEFT:  2.00D  GRAD.:     2.494 HEAT: -268.1114    
 CYCLE:   104 TIME:   0.008 TIME LEFT:  2.00D  GRAD.:     2.722 HEAT: -268.1210    
 CYCLE:   105 TIME:   0.008 TIME LEFT:  2.00D  GRAD.:     2.897 HEAT: -268.1350    
 CYCLE:   106 TIME:   0.016 TIME LEFT:  2.00D  GRAD.:     4.179 HEAT: -268.1522    
 CYCLE:   107 TIME:   0.016 TIME LEFT:  2.00D  GRAD.:     3.238 HEAT: -268.1754    
 CYCLE:   108 TIME:   0.016 TIME LEFT:  2.00D  GRAD.:     4.110 HEAT: -268.2009    
 CYCLE:   109 TIME:   0.008 TIME LEFT:  2.00D  GRAD.:     3.033 HEAT: -268.2228    
 CYCLE:   110 TIME:   0.016 TIME LEFT:  2.00D  GRAD.:     4.837 HEAT: -268.2415    
 CYCLE:   111 TIME:   0.008 TIME LEFT:  2.00D  GRAD.:     2.877 HEAT: -268.2547    
 CYCLE:   112 TIME:   0.008 TIME LEFT:  2.00D  GRAD.:     2.523 HEAT: -268.2681    
 CYCLE:   113 TIME:   0.008 TIME LEFT:  2.00D  GRAD.:     2.134 HEAT: -268.2742    
 CYCLE:   114 TIME:   0.008 TIME LEFT:  2.00D  GRAD.:     2.077 HEAT: -268.2793    
 CYCLE:   115 TIME:   0.016 TIME LEFT:  2.00D  GRAD.:     1.903 HEAT: -268.2834    
 CYCLE:   116 TIME:   0.008 TIME LEFT:  2.00D  GRAD.:     2.013 HEAT: -268.2887    
 CYCLE:   117 TIME:   0.016 TIME LEFT:  2.00D  GRAD.:     1.865 HEAT: -268.2966    
 CYCLE:   118 TIME:   0.008 TIME LEFT:  2.00D  GRAD.:     2.043 HEAT: -268.3017    
 CYCLE:   119 TIME:   0.008 TIME LEFT:  2.00D  GRAD.:     1.912 HEAT: -268.3060    
 CYCLE:   120 TIME:   0.008 TIME LEFT:  2.00D  GRAD.:     1.927 HEAT: -268.3101    
 TEST ON GRADIENT SATISFIED
                    HOWEVER, A COMPONENT OF GRADIENT IS LARGER THAN  0.20

 CYCLE:   121 TIME:   0.016 TIME LEFT:  2.00D  GRAD.:     1.347 HEAT: -268.3140    
 TEST ON GRADIENT SATISFIED
                    HOWEVER, A COMPONENT OF GRADIENT IS LARGER THAN  0.20

 CYCLE:   122 TIME:   0.008 TIME LEFT:  2.00D  GRAD.:     1.234 HEAT: -268.3182    
 TEST ON GRADIENT SATISFIED
                    HOWEVER, A COMPONENT OF GRADIENT IS LARGER THAN  0.20

 CYCLE:   123 TIME:   0.008 TIME LEFT:  2.00D  GRAD.:     0.989 HEAT: -268.3204    
 TEST ON GRADIENT SATISFIED
                    HOWEVER, A COMPONENT OF GRADIENT IS LARGER THAN  0.20

 CYCLE:   124 TIME:   0.008 TIME LEFT:  2.00D  GRAD.:     0.984 HEAT: -268.3218    
 TEST ON GRADIENT SATISFIED
                    HOWEVER, A COMPONENT OF GRADIENT IS LARGER THAN  0.20

 CYCLE:   125 TIME:   0.008 TIME LEFT:  2.00D  GRAD.:     1.007 HEAT: -268.3231    
 TEST ON GRADIENT SATISFIED
                    HOWEVER, A COMPONENT OF GRADIENT IS LARGER THAN  0.20

 CYCLE:   126 TIME:   0.016 TIME LEFT:  2.00D  GRAD.:     1.043 HEAT: -268.3247    
 TEST ON GRADIENT SATISFIED
                    HOWEVER, A COMPONENT OF GRADIENT IS LARGER THAN  0.20

 CYCLE:   127 TIME:   0.008 TIME LEFT:  2.00D  GRAD.:     1.092 HEAT: -268.3260    
 TEST ON GRADIENT SATISFIED
                    HOWEVER, A COMPONENT OF GRADIENT IS LARGER THAN  0.20

 CYCLE:   128 TIME:   0.016 TIME LEFT:  2.00D  GRAD.:     1.133 HEAT: -268.3282    
 TEST ON GRADIENT SATISFIED
                    HOWEVER, A COMPONENT OF GRADIENT IS LARGER THAN  0.20

 CYCLE:   129 TIME:   0.008 TIME LEFT:  2.00D  GRAD.:     1.251 HEAT: -268.3305    
 CYCLE:   130 TIME:   0.008 TIME LEFT:  2.00D  GRAD.:     1.716 HEAT: -268.3338    
 CYCLE:   131 TIME:   0.016 TIME LEFT:  2.00D  GRAD.:     2.345 HEAT: -268.3390    
 CYCLE:   132 TIME:   0.008 TIME LEFT:  2.00D  GRAD.:     1.744 HEAT: -268.3432    
 CYCLE:   133 TIME:   0.016 TIME LEFT:  2.00D  GRAD.:     2.043 HEAT: -268.3491    
 TEST ON GRADIENT SATISFIED
                    HOWEVER, A COMPONENT OF GRADIENT IS LARGER THAN  0.20

 CYCLE:   134 TIME:   0.016 TIME LEFT:  2.00D  GRAD.:     1.146 HEAT: -268.3531    
 TEST ON GRADIENT SATISFIED
                    HOWEVER, A COMPONENT OF GRADIENT IS LARGER THAN  0.20

 CYCLE:   135 TIME:   0.008 TIME LEFT:  2.00D  GRAD.:     0.946 HEAT: -268.3543    
 TEST ON GRADIENT SATISFIED
                    HOWEVER, A COMPONENT OF GRADIENT IS LARGER THAN  0.20

 CYCLE:   136 TIME:   0.016 TIME LEFT:  2.00D  GRAD.:     1.041 HEAT: -268.3549    
 TEST ON GRADIENT SATISFIED
                    HOWEVER, A COMPONENT OF GRADIENT IS LARGER THAN  0.20

 CYCLE:   137 TIME:   0.008 TIME LEFT:  2.00D  GRAD.:     0.695 HEAT: -268.3554    
 TEST ON GRADIENT SATISFIED
                    HOWEVER, A COMPONENT OF GRADIENT IS LARGER THAN  0.20

           THERE HAVE BEEN 3 ATTEMPTS TO REDUCE THE GRADIENT.
           DURING THESE ATTEMPTS THE ENERGY DROPPED BY LESS THAN 0.0 KCAL/MOLE
           FURTHER CALCULATION IS NOT JUSTIFIED AT THIS TIME.

 -------------------------------------------------------------------------------
 BFGS PM7 MMOK PRECISE
 C6H12O6



     GRADIENT TEST NOT PASSED, BUT FURTHER WORK NOT JUSTIFIED 
     SCF FIELD WAS ACHIEVED                                   


                              PM7 CALCULATION
                                                       MOPAC2012 (Version: 14.208M)
                                                       Mon Mar 23 22:56:29 2015
                                                       No. of days left = 126




          FINAL HEAT OF FORMATION =       -268.35612 KCAL/MOL =   -1122.80201 KJ/MOL


          TOTAL ENERGY            =      -2671.04569 EV
          ELECTRONIC ENERGY       =     -13717.67876 EV  POINT GROUP:     C1  
          CORE-CORE REPULSION     =      11046.63307 EV
          COSMO AREA              =        194.75 SQUARE ANGSTROMS
          COSMO VOLUME            =        201.81 CUBIC ANGSTROMS

          GRADIENT NORM           =          1.03958
          IONIZATION POTENTIAL    =         10.550916 EV
          HOMO LUMO ENERGIES (EV) =        -10.551  0.073
          NO. OF FILLED LEVELS    =         36
          MOLECULAR WEIGHT        =        180.157

          MOLECULAR DIMENSIONS (Angstroms)

            Atom       Atom       Distance
            H    24    O     1     8.32472
            H    20    H    17     3.87459
            H    19    H     4     3.45431


          SCF CALCULATIONS        =        196
 
          WALL-CLOCK TIME         =          1.453 SECONDS
          COMPUTATION TIME        =          2.729 SECONDS




   ATOM   CHEMICAL          X               Y               Z
  NUMBER   SYMBOL      (ANGSTROMS)     (ANGSTROMS)     (ANGSTROMS)
 
     1       O         -3.98621772  *  -0.09150268  *  -0.47527259  *
     2       C         -3.10857606  *  -0.76062640  *   0.01035952  *
     3       C         -1.95416102  *  -0.07239336  *   0.73280918  *
     4       H         -2.00912842  *  -0.24155467  *   1.83442698  *
     5       O         -2.02313606  *   1.32955844  *   0.58219844  *
     6       C         -0.62151833  *  -0.59626044  *   0.15430968  *
     7       H         -0.37695025  *  -1.60148251  *   0.58015566  *
     8       O         -0.80434710  *  -0.85278824  *  -1.21672722  *
     9       C          0.54383994  *   0.38726155  *   0.37648731  *
    10       H          0.56507083  *   0.76384826  *   1.42334796  *
    11       O          0.40988408  *   1.47616938  *  -0.51561169  *
    12       C          1.88417946  *  -0.27451866  *  -0.00448392  *
    13       H          1.78916882  *  -0.90613596  *  -0.91634845  *
    14       O          2.16034181  *  -1.15165139  *   1.07140513  *
    15       C          2.99259584  *   0.77693911  *  -0.14789220  *
    16       O          4.23277064  *   0.10851573  *  -0.26140159  *
    17       H         -3.10166151  *  -1.85283339  *  -0.04426478  *
    18       H         -2.82939648  *   1.58000845  *   0.06105346  *
    19       H         -0.62003063  *  -0.03740806  *  -1.74288366  *
    20       H         -0.43907974  *   1.94172685  *  -0.30576638  *
    21       H          3.13340647  *  -1.20871054  *   1.21437894  *
    22       H          2.82411580  *   1.44819648  *  -1.00807775  *
    23       H          3.11824979  *   1.38344309  *   0.76896332  *
    24       H          4.30932040  *  -0.34489675  *  -1.12397995  *
                             CARTESIAN COORDINATES

   1    O       -3.986217722    -0.091502677    -0.475272590
   2    C       -3.108576063    -0.760626403     0.010359518
   3    C       -1.954161022    -0.072393362     0.732809184
   4    H       -2.009128425    -0.241554675     1.834426983
   5    O       -2.023136061     1.329558439     0.582198442
   6    C       -0.621518330    -0.596260436     0.154309681
   7    H       -0.376950253    -1.601482512     0.580155662
   8    O       -0.804347098    -0.852788243    -1.216727223
   9    C        0.543839940     0.387261551     0.376487311
  10    H        0.565070829     0.763848258     1.423347959
  11    O        0.409884080     1.476169378    -0.515611694
  12    C        1.884179465    -0.274518663    -0.004483920
  13    H        1.789168825    -0.906135957    -0.916348446
  14    O        2.160341811    -1.151651390     1.071405128
  15    C        2.992595838     0.776939105    -0.147892197
  16    O        4.232770637     0.108515730    -0.261401595
  17    H       -3.101661507    -1.852833392    -0.044264782
  18    H       -2.829396483     1.580008446     0.061053459
  19    H       -0.620030632    -0.037408058    -1.742883664
  20    H       -0.439079737     1.941726847    -0.305766382
  21    H        3.133406475    -1.208710538     1.214378940
  22    H        2.824115805     1.448196482    -1.008077751
  23    H        3.118249792     1.383443094     0.768963318
  24    H        4.309320397    -0.344896750    -1.123979947


           Empirical Formula: C6 H12 O6  =    24 atoms



      MOLECULAR POINT GROUP   :   C1  


                  EIGENVALUES  
 -32.03323 -31.24194 -30.38403 -29.45735 -29.06626 -28.93675 -27.05762 -26.25779
 -24.38008 -22.08080 -20.87129 -20.42549 -18.62948 -18.19074 -17.65455 -17.42112
 -17.20188 -16.93901 -16.38504 -15.60340 -15.18251 -14.89649 -14.48100 -14.08908
 -13.97680 -13.79163 -13.42958 -13.11229 -12.65023 -12.33125 -12.17585 -11.31375
 -11.19995 -10.89517 -10.77568 -10.55092   0.07298   1.64618   1.98750   2.19917
   2.51543   2.70164   2.99344   3.13909   3.32794   3.59222   3.76520   4.28576
   4.59206   4.73281   4.89183   4.97325   5.15403   5.39602   5.49343   5.53738
   5.67909   5.84370   5.93916   5.99512


              NET ATOMIC CHARGES AND DIPOLE CONTRIBUTIONS

  ATOM NO.   TYPE          CHARGE      No. of ELECS.   s-Pop       p-Pop       
    1          O          -0.432192        6.4322     1.87797     4.55422
    2          C           0.325490        3.6745     1.15875     2.51576
    3          C          -0.021745        4.0217     1.11270     2.90904
    4          H           0.162173        0.8378     0.83783
    5          O          -0.565484        6.5655     1.85007     4.71542
    6          C           0.063976        3.9360     1.10442     2.83161
    7          H           0.169930        0.8301     0.83007
    8          O          -0.553820        6.5538     1.85190     4.70192
    9          C           0.083683        3.9163     1.09952     2.81679
   10          H           0.149505        0.8505     0.85050
   11          O          -0.576487        6.5765     1.85535     4.72114
   12          C           0.078829        3.9212     1.09968     2.82149
   13          H           0.144544        0.8555     0.85546
   14          O          -0.573458        6.5735     1.85137     4.72209
   15          C          -0.050891        4.0509     1.09547     2.95542
   16          O          -0.550820        6.5508     1.84920     4.70162
   17          H           0.134752        0.8652     0.86525
   18          H           0.352938        0.6471     0.64706
   19          H           0.342344        0.6577     0.65766
   20          H           0.352844        0.6472     0.64716
   21          H           0.344557        0.6554     0.65544
   22          H           0.146123        0.8539     0.85388
   23          H           0.157233        0.8428     0.84277
   24          H           0.315974        0.6840     0.68403
 DIPOLE           X         Y         Z       TOTAL
 POINT-CHG.     0.250    -1.188     1.139     1.665
 HYBRID        -0.205     0.676    -0.803     1.069
 SUM            0.045    -0.512     0.337     0.614


          ATOMIC ORBITAL ELECTRON POPULATIONS

    Atom      s        px        py        pz   
    1  O   1.87797   1.42423   1.72259   1.40740
    2  C   1.15875   0.80915   0.99166   0.71494
    3  C   1.11270   1.02001   0.79923   1.08981
    4  H   0.83783
    5  O   1.85007   1.59684   1.29656   1.82202
    6  C   1.10442   0.95537   1.07387   0.80236
    7  H   0.83007
    8  O   1.85190   1.92965   1.49432   1.27794
    9  C   1.09952   0.96318   0.85981   0.99381
   10  H   0.85050
   11  O   1.85535   1.56494   1.51889   1.63731
   12  C   1.09968   0.95795   0.93843   0.92511
   13  H   0.85546
   14  O   1.85137   1.42353   1.70782   1.59074
   15  C   1.09547   0.81554   0.98544   1.15443
   16  O   1.84920   1.43904   1.75407   1.50852
   17  H   0.86525
   18  H   0.64706
   19  H   0.65766
   20  H   0.64716
   21  H   0.65544
   22  H   0.85388
   23  H   0.84277
   24  H   0.68403



 TOTAL JOB TIME:             1.45 SECONDS

 == MOPAC DONE ==
