 *******************************************************************************
 ** Site#: 6541         For non-commercial use only     Version 14.208M 64BITS**
 *******************************************************************************
 ** Cite this work as:                                                        **
 **                                                                           **
 ** (a) MOPAC2012, James J. P. Stewart, Stewart Computational Chemistry,      **
 **  Version 14.208M web: HTTP://OpenMOPAC.net         Days remaining: 126    **
 **                                                                           **
 **                                 AND                                       **
 **                                                                           **
 ** (b) Maia, J.D.C., et al., J. Chem. Theory Comput. 2012, 8, 3072-3081.     **
 **                DOI: 10.1021/ct3004645.                                    **
 *******************************************************************************
 **                                                                           **
 **                                MOPAC2012                                  **
 **                                                                           **
 *******************************************************************************

                            PM7 CALCULATION RESULTS


 *******************************************************************************
 *  CALCULATION DONE:                                Mon Mar 23 22:56:29 2015  *
 *  PM7        - The PM7 Hamiltonian to be used
 *  MMOK       - APPLY MM CORRECTION TO CONH BARRIER
 *  PRECISE    - CRITERIA TO BE INCREASED BY 100 TIMES
 *  BFGS       - USE THE BFGS GEOMETRY OPTIMIZER
 *  T=         - A TIME OF 172800.0 SECONDS REQUESTED
 *  DUMP=N     - RESTART FILE WRITTEN EVERY  7200.000 SECONDS
 *******************************************************************************
 BFGS PM7 MMOK PRECISE
 C13H18O2

   ATOM   CHEMICAL          X               Y               Z
  NUMBER   SYMBOL      (ANGSTROMS)     (ANGSTROMS)     (ANGSTROMS)
 
     1       C         -0.36470000  *  -0.78370000  *  -1.35470000  *
     2       C         -0.52700000  *   0.45900000  *   0.68540000  *
     3       C          0.96180000  *  -1.06000000  *  -1.08080000  *
     4       C          0.79940000  *   0.18240000  *   0.95950000  *
     5       C          2.98980000  *  -0.87850000  *   0.37500000  *
     6       C         -2.75250000  *   1.79120000  *  -0.86140000  *
     7       C          3.58360000  *   1.54610000  *   0.47960000  *
     8       C          5.34570000  *  -0.15080000  *  -0.02840000  *
     9       C         -1.10910000  *  -0.02440000  *  -0.47140000  *
    10       C          1.54380000  *  -0.57690000  *   0.07620000  *
    11       O         -2.91640000  *  -0.85670000  *   1.26400000  *
    12       O         -4.75420000  *  -0.12620000  *   0.27790000  *
    13       C         -3.42150000  *  -0.27700000  *   0.33190000  *
    14       H         -5.26800000  *  -0.49840000  *   1.00770000  *
    15       C         -2.55530000  *   0.27670000  *  -0.76990000  *
    16       C          3.87360000  *   0.21810000  *  -0.22270000  *
    17       H         -2.83420000  *  -0.18390000  *  -1.71760000  *
    18       H         -0.81810000  *  -1.15730000  *  -2.26080000  *
    19       H         -1.10860000  *   1.05250000  *   1.37530000  *
    20       H         -3.79840000  *   2.00900000  *  -1.07730000  *
    21       H         -2.47360000  *   2.25180000  *   0.08630000  *
    22       H         -2.12590000  *   2.19170000  *  -1.65840000  *
    23       H          1.54340000  *  -1.65350000  *  -1.77070000  *
    24       H          1.25430000  *   0.56040000  *   1.86310000  *
    25       H          3.13760000  *  -0.91630000  *   1.45430000  *
    26       H          3.25830000  *  -1.84020000  *  -0.06230000  *
    27       H          3.66100000  *   0.31610000  *  -1.28730000  *
    28       H          3.79620000  *   1.44810000  *   1.54420000  *
    29       H          4.21320000  *   2.32740000  *   0.05380000  *
    30       H          2.53490000  *   1.80890000  *   0.34120000  *
    31       H          5.55220000  *  -1.09690000  *  -0.52870000  *
    32       H          5.97530000  *   0.63040000  *  -0.45420000  *
    33       H          5.55820000  *  -0.24880000  *   1.03620000  *
 


          CARTESIAN COORDINATES 

    NO.       ATOM         X         Y         Z

     1         C       -0.3647   -0.7837   -1.3547
     2         C       -0.5270    0.4590    0.6854
     3         C        0.9618   -1.0600   -1.0808
     4         C        0.7994    0.1824    0.9595
     5         C        2.9898   -0.8785    0.3750
     6         C       -2.7525    1.7912   -0.8614
     7         C        3.5836    1.5461    0.4796
     8         C        5.3457   -0.1508   -0.0284
     9         C       -1.1091   -0.0244   -0.4714
    10         C        1.5438   -0.5769    0.0762
    11         O       -2.9164   -0.8567    1.2640
    12         O       -4.7542   -0.1262    0.2779
    13         C       -3.4215   -0.2770    0.3319
    14         H       -5.2680   -0.4984    1.0077
    15         C       -2.5553    0.2767   -0.7699
    16         C        3.8736    0.2181   -0.2227
    17         H       -2.8342   -0.1839   -1.7176
    18         H       -0.8181   -1.1573   -2.2608
    19         H       -1.1086    1.0525    1.3753
    20         H       -3.7984    2.0090   -1.0773
    21         H       -2.4736    2.2518    0.0863
    22         H       -2.1259    2.1917   -1.6584
    23         H        1.5434   -1.6535   -1.7707
    24         H        1.2543    0.5604    1.8631
    25         H        3.1376   -0.9163    1.4543
    26         H        3.2583   -1.8402   -0.0623
    27         H        3.6610    0.3161   -1.2873
    28         H        3.7962    1.4481    1.5442
    29         H        4.2132    2.3274    0.0538
    30         H        2.5349    1.8089    0.3412
    31         H        5.5522   -1.0969   -0.5287
    32         H        5.9753    0.6304   -0.4542
    33         H        5.5582   -0.2488    1.0362

     ===================== shared-memory parallel CPU Section ======================
     **                                                                           **
     **  MOPAC calculations will run in shared-memory parallel CPUs               **
     **                                                                           **
     **  Number of Threads =  2                                                   **
     **                                                                           **
     **                                                                           **
     **  For information on this work, see:                                       **
     **                                                                           **
     **  Maia, J.D.C., et al., J. Chem. Theory Comput. 2012, 8, 3072-3081.        **
     **        DOI: 10.1021/ct3004645.                                            **
     **                                                                           **
     ===================== shared-memory parallel CPU Section ======================
      


 General Reference for PM7:
 "Optimization of Parameters for Semiempirical Methods VI: More Modifications to the 
 NDDO Approximations and Re-optimization of Parameters", J. J. P. Stewart, J. Mol. Mod., 1:32, 19 (2013)
 http://www.springerlink.com/openurl.asp?genre=article&id=doi:10.1007/s00894-012-1667-x

           Empirical Formula: C13 H18 O2  =    33 atoms



      MOLECULAR POINT GROUP   :   C1  


      RHF CALCULATION, NO. OF DOUBLY OCCUPIED LEVELS =   41

      Geometry optimization using BFGS
 CYCLE:     1 TIME:   0.023 TIME LEFT:  2.00D  GRAD.:    84.560 HEAT: -98.87386    
 CYCLE:     2 TIME:   0.023 TIME LEFT:  2.00D  GRAD.:    47.675 HEAT: -100.5512    
 CYCLE:     3 TIME:   0.023 TIME LEFT:  2.00D  GRAD.:    36.938 HEAT: -101.1700    
 CYCLE:     4 TIME:   0.023 TIME LEFT:  2.00D  GRAD.:    21.814 HEAT: -101.5638    
 CYCLE:     5 TIME:   0.016 TIME LEFT:  2.00D  GRAD.:    17.740 HEAT: -101.7471    
 CYCLE:     6 TIME:   0.016 TIME LEFT:  2.00D  GRAD.:    17.902 HEAT: -101.9718    
 CYCLE:     7 TIME:   0.016 TIME LEFT:  2.00D  GRAD.:    22.541 HEAT: -102.0456    
 CYCLE:     8 TIME:   0.016 TIME LEFT:  2.00D  GRAD.:    24.989 HEAT: -102.0871    
 CYCLE:     9 TIME:   0.016 TIME LEFT:  2.00D  GRAD.:    13.768 HEAT: -102.3596    
 CYCLE:    10 TIME:   0.016 TIME LEFT:  2.00D  GRAD.:    14.395 HEAT: -102.4273    
 CYCLE:    11 TIME:   0.016 TIME LEFT:  2.00D  GRAD.:    22.467 HEAT: -102.4475    
 CYCLE:    12 TIME:   0.016 TIME LEFT:  2.00D  GRAD.:    13.856 HEAT: -102.6142    
 CYCLE:    13 TIME:   0.016 TIME LEFT:  2.00D  GRAD.:    18.330 HEAT: -102.6266    
 CYCLE:    14 TIME:   0.008 TIME LEFT:  2.00D  GRAD.:     9.699 HEAT: -102.7415    
 CYCLE:    15 TIME:   0.016 TIME LEFT:  2.00D  GRAD.:     9.257 HEAT: -102.7806    
 CYCLE:    16 TIME:   0.023 TIME LEFT:  2.00D  GRAD.:     5.110 HEAT: -102.8350    
 CYCLE:    17 TIME:   0.016 TIME LEFT:  2.00D  GRAD.:     5.849 HEAT: -102.8807    
 CYCLE:    18 TIME:   0.016 TIME LEFT:  2.00D  GRAD.:     8.015 HEAT: -102.9281    
 CYCLE:    19 TIME:   0.016 TIME LEFT:  2.00D  GRAD.:     6.805 HEAT: -102.9746    
 CYCLE:    20 TIME:   0.008 TIME LEFT:  2.00D  GRAD.:     5.923 HEAT: -103.0400    
 CYCLE:    21 TIME:   0.016 TIME LEFT:  2.00D  GRAD.:     5.494 HEAT: -103.0919    
 CYCLE:    22 TIME:   0.016 TIME LEFT:  2.00D  GRAD.:     4.741 HEAT: -103.1322    
 CYCLE:    23 TIME:   0.023 TIME LEFT:  2.00D  GRAD.:     4.431 HEAT: -103.1643    
 CYCLE:    24 TIME:   0.023 TIME LEFT:  2.00D  GRAD.:     4.870 HEAT: -103.2054    
 CYCLE:    25 TIME:   0.008 TIME LEFT:  2.00D  GRAD.:     5.567 HEAT: -103.2532    
 CYCLE:    26 TIME:   0.016 TIME LEFT:  2.00D  GRAD.:     5.687 HEAT: -103.3048    
 CYCLE:    27 TIME:   0.016 TIME LEFT:  2.00D  GRAD.:     5.595 HEAT: -103.3591    
 CYCLE:    28 TIME:   0.008 TIME LEFT:  2.00D  GRAD.:     5.586 HEAT: -103.4143    
 CYCLE:    29 TIME:   0.023 TIME LEFT:  2.00D  GRAD.:     5.921 HEAT: -103.4626    
 CYCLE:    30 TIME:   0.016 TIME LEFT:  2.00D  GRAD.:     4.995 HEAT: -103.5022    
 CYCLE:    31 TIME:   0.016 TIME LEFT:  2.00D  GRAD.:     4.399 HEAT: -103.5382    
 CYCLE:    32 TIME:   0.016 TIME LEFT:  2.00D  GRAD.:     4.816 HEAT: -103.5744    
 CYCLE:    33 TIME:   0.016 TIME LEFT:  2.00D  GRAD.:     5.417 HEAT: -103.6151    
 CYCLE:    34 TIME:   0.016 TIME LEFT:  2.00D  GRAD.:     7.259 HEAT: -103.6529    
 CYCLE:    35 TIME:   0.016 TIME LEFT:  2.00D  GRAD.:     8.310 HEAT: -103.6785    
 CYCLE:    36 TIME:   0.016 TIME LEFT:  2.00D  GRAD.:     6.342 HEAT: -103.7192    
 CYCLE:    37 TIME:   0.023 TIME LEFT:  2.00D  GRAD.:     7.306 HEAT: -103.7659    
 CYCLE:    38 TIME:   0.023 TIME LEFT:  2.00D  GRAD.:     5.506 HEAT: -103.8132    
 CYCLE:    39 TIME:   0.016 TIME LEFT:  2.00D  GRAD.:     4.212 HEAT: -103.8536    
 CYCLE:    40 TIME:   0.016 TIME LEFT:  2.00D  GRAD.:     3.852 HEAT: -103.8769    
 CYCLE:    41 TIME:   0.016 TIME LEFT:  2.00D  GRAD.:     3.472 HEAT: -103.8938    
 CYCLE:    42 TIME:   0.016 TIME LEFT:  2.00D  GRAD.:     3.358 HEAT: -103.9156    
 CYCLE:    43 TIME:   0.023 TIME LEFT:  2.00D  GRAD.:     5.101 HEAT: -103.9361    
 CYCLE:    44 TIME:   0.023 TIME LEFT:  2.00D  GRAD.:     3.967 HEAT: -103.9635    
 CYCLE:    45 TIME:   0.016 TIME LEFT:  2.00D  GRAD.:     5.386 HEAT: -103.9918    
 CYCLE:    46 TIME:   0.031 TIME LEFT:  2.00D  GRAD.:     5.238 HEAT: -104.0295    
 CYCLE:    47 TIME:   0.023 TIME LEFT:  2.00D  GRAD.:     7.970 HEAT: -104.0552    
 CYCLE:    48 TIME:   0.016 TIME LEFT:  2.00D  GRAD.:     4.543 HEAT: -104.0740    
 CYCLE:    49 TIME:   0.016 TIME LEFT:  2.00D  GRAD.:     3.275 HEAT: -104.0993    
 CYCLE:    50 TIME:   0.016 TIME LEFT:  2.00D  GRAD.:     5.401 HEAT: -104.1242    
 CYCLE:    51 TIME:   0.016 TIME LEFT:  2.00D  GRAD.:     6.125 HEAT: -104.1546    
 CYCLE:    52 TIME:   0.023 TIME LEFT:  2.00D  GRAD.:     7.979 HEAT: -104.2035    
 CYCLE:    53 TIME:   0.016 TIME LEFT:  2.00D  GRAD.:     4.499 HEAT: -104.2308    
 CYCLE:    54 TIME:   0.031 TIME LEFT:  2.00D  GRAD.:     8.222 HEAT: -104.2741    
 CYCLE:    55 TIME:   0.016 TIME LEFT:  2.00D  GRAD.:     4.017 HEAT: -104.3107    
 CYCLE:    56 TIME:   0.016 TIME LEFT:  2.00D  GRAD.:    12.144 HEAT: -104.3578    
 CYCLE:    57 TIME:   0.016 TIME LEFT:  2.00D  GRAD.:     5.386 HEAT: -104.3837    
 CYCLE:    58 TIME:   0.023 TIME LEFT:  2.00D  GRAD.:     7.969 HEAT: -104.4202    
 CYCLE:    59 TIME:   0.023 TIME LEFT:  2.00D  GRAD.:     5.595 HEAT: -104.4537    
 CYCLE:    60 TIME:   0.023 TIME LEFT:  2.00D  GRAD.:     6.276 HEAT: -104.4846    
 CYCLE:    61 TIME:   0.016 TIME LEFT:  2.00D  GRAD.:     5.652 HEAT: -104.4933    
 CYCLE:    62 TIME:   0.023 TIME LEFT:  2.00D  GRAD.:     4.358 HEAT: -104.5161    
 CYCLE:    63 TIME:   0.023 TIME LEFT:  2.00D  GRAD.:     4.294 HEAT: -104.5322    
 CYCLE:    64 TIME:   0.023 TIME LEFT:  2.00D  GRAD.:     4.369 HEAT: -104.5605    
 CYCLE:    65 TIME:   0.023 TIME LEFT:  2.00D  GRAD.:     6.298 HEAT: -104.5812    
 CYCLE:    66 TIME:   0.016 TIME LEFT:  2.00D  GRAD.:     5.808 HEAT: -104.5935    
 CYCLE:    67 TIME:   0.016 TIME LEFT:  2.00D  GRAD.:     3.031 HEAT: -104.6127    
 CYCLE:    68 TIME:   0.023 TIME LEFT:  2.00D  GRAD.:     4.112 HEAT: -104.6297    
 CYCLE:    69 TIME:   0.016 TIME LEFT:  2.00D  GRAD.:     3.773 HEAT: -104.6470    
 CYCLE:    70 TIME:   0.023 TIME LEFT:  2.00D  GRAD.:     3.236 HEAT: -104.6647    
 CYCLE:    71 TIME:   0.016 TIME LEFT:  2.00D  GRAD.:     3.396 HEAT: -104.6816    
 CYCLE:    72 TIME:   0.016 TIME LEFT:  2.00D  GRAD.:     3.142 HEAT: -104.7011    
 CYCLE:    73 TIME:   0.016 TIME LEFT:  2.00D  GRAD.:     5.314 HEAT: -104.7157    
 CYCLE:    74 TIME:   0.016 TIME LEFT:  2.00D  GRAD.:     3.481 HEAT: -104.7390    
 CYCLE:    75 TIME:   0.016 TIME LEFT:  2.00D  GRAD.:     3.239 HEAT: -104.7608    
 CYCLE:    76 TIME:   0.016 TIME LEFT:  2.00D  GRAD.:     2.872 HEAT: -104.7799    
 CYCLE:    77 TIME:   0.016 TIME LEFT:  2.00D  GRAD.:     2.554 HEAT: -104.7944    
 CYCLE:    78 TIME:   0.016 TIME LEFT:  2.00D  GRAD.:     3.364 HEAT: -104.8014    
 CYCLE:    79 TIME:   0.016 TIME LEFT:  2.00D  GRAD.:     2.469 HEAT: -104.8116    
 CYCLE:    80 TIME:   0.023 TIME LEFT:  2.00D  GRAD.:     3.318 HEAT: -104.8256    
 CYCLE:    81 TIME:   0.016 TIME LEFT:  2.00D  GRAD.:     2.966 HEAT: -104.8457    
 CYCLE:    82 TIME:   0.023 TIME LEFT:  2.00D  GRAD.:     2.731 HEAT: -104.8637    
 CYCLE:    83 TIME:   0.008 TIME LEFT:  2.00D  GRAD.:     2.503 HEAT: -104.8760    
 CYCLE:    84 TIME:   0.016 TIME LEFT:  2.00D  GRAD.:     3.918 HEAT: -104.8858    
 TEST ON GRADIENT SATISFIED
                    HOWEVER, A COMPONENT OF GRADIENT IS LARGER THAN  0.20

 CYCLE:    85 TIME:   0.023 TIME LEFT:  2.00D  GRAD.:     1.727 HEAT: -104.8941    
 TEST ON GRADIENT SATISFIED
                    HOWEVER, A COMPONENT OF GRADIENT IS LARGER THAN  0.20

 CYCLE:    86 TIME:   0.031 TIME LEFT:  2.00D  GRAD.:     1.242 HEAT: -104.8996    
 TEST ON GRADIENT SATISFIED
                    HOWEVER, A COMPONENT OF GRADIENT IS LARGER THAN  0.20

 CYCLE:    87 TIME:   0.031 TIME LEFT:  2.00D  GRAD.:     1.404 HEAT: -104.9025    
 TEST ON GRADIENT SATISFIED
                    HOWEVER, A COMPONENT OF GRADIENT IS LARGER THAN  0.20

 CYCLE:    88 TIME:   0.016 TIME LEFT:  2.00D  GRAD.:     1.482 HEAT: -104.9053    
 TEST ON GRADIENT SATISFIED
                    HOWEVER, A COMPONENT OF GRADIENT IS LARGER THAN  0.20

 CYCLE:    89 TIME:   0.016 TIME LEFT:  2.00D  GRAD.:     1.590 HEAT: -104.9107    
 TEST ON GRADIENT SATISFIED
                    HOWEVER, A COMPONENT OF GRADIENT IS LARGER THAN  0.20

 CYCLE:    90 TIME:   0.023 TIME LEFT:  2.00D  GRAD.:     1.544 HEAT: -104.9143    
 TEST ON GRADIENT SATISFIED
                    HOWEVER, A COMPONENT OF GRADIENT IS LARGER THAN  0.20

 CYCLE:    91 TIME:   0.023 TIME LEFT:  2.00D  GRAD.:     1.161 HEAT: -104.9171    
 TEST ON GRADIENT SATISFIED
                    HOWEVER, A COMPONENT OF GRADIENT IS LARGER THAN  0.20

 CYCLE:    92 TIME:   0.023 TIME LEFT:  2.00D  GRAD.:     1.295 HEAT: -104.9196    
 TEST ON GRADIENT SATISFIED
                    HOWEVER, A COMPONENT OF GRADIENT IS LARGER THAN  0.20

 CYCLE:    93 TIME:   0.016 TIME LEFT:  2.00D  GRAD.:     1.277 HEAT: -104.9232    
 TEST ON GRADIENT SATISFIED
                    HOWEVER, A COMPONENT OF GRADIENT IS LARGER THAN  0.20

 CYCLE:    94 TIME:   0.023 TIME LEFT:  2.00D  GRAD.:     1.361 HEAT: -104.9278    
 TEST ON GRADIENT SATISFIED
                    HOWEVER, A COMPONENT OF GRADIENT IS LARGER THAN  0.20

 CYCLE:    95 TIME:   0.016 TIME LEFT:  2.00D  GRAD.:     1.830 HEAT: -104.9321    
 CYCLE:    96 TIME:   0.031 TIME LEFT:  2.00D  GRAD.:     2.171 HEAT: -104.9374    
 TEST ON GRADIENT SATISFIED
                    HOWEVER, A COMPONENT OF GRADIENT IS LARGER THAN  0.20

 CYCLE:    97 TIME:   0.023 TIME LEFT:  2.00D  GRAD.:     1.564 HEAT: -104.9429    
 TEST ON GRADIENT SATISFIED
                    HOWEVER, A COMPONENT OF GRADIENT IS LARGER THAN  0.20

 CYCLE:    98 TIME:   0.016 TIME LEFT:  2.00D  GRAD.:     1.517 HEAT: -104.9483    
 TEST ON GRADIENT SATISFIED
                    HOWEVER, A COMPONENT OF GRADIENT IS LARGER THAN  0.20

 CYCLE:    99 TIME:   0.016 TIME LEFT:  2.00D  GRAD.:     1.580 HEAT: -104.9547    
 TEST ON GRADIENT SATISFIED
                    HOWEVER, A COMPONENT OF GRADIENT IS LARGER THAN  0.20

 CYCLE:   100 TIME:   0.023 TIME LEFT:  2.00D  GRAD.:     1.555 HEAT: -104.9620    
 TEST ON GRADIENT SATISFIED
                    HOWEVER, A COMPONENT OF GRADIENT IS LARGER THAN  0.20

 CYCLE:   101 TIME:   0.023 TIME LEFT:  2.00D  GRAD.:     1.345 HEAT: -104.9673    
 TEST ON GRADIENT SATISFIED
                    HOWEVER, A COMPONENT OF GRADIENT IS LARGER THAN  0.20

 CYCLE:   102 TIME:   0.016 TIME LEFT:  2.00D  GRAD.:     1.433 HEAT: -104.9711    
 TEST ON GRADIENT SATISFIED
                    HOWEVER, A COMPONENT OF GRADIENT IS LARGER THAN  0.20

 CYCLE:   103 TIME:   0.016 TIME LEFT:  2.00D  GRAD.:     1.363 HEAT: -104.9742    
 TEST ON GRADIENT SATISFIED
                    HOWEVER, A COMPONENT OF GRADIENT IS LARGER THAN  0.20

 CYCLE:   104 TIME:   0.023 TIME LEFT:  2.00D  GRAD.:     1.195 HEAT: -104.9771    
 TEST ON GRADIENT SATISFIED
                    HOWEVER, A COMPONENT OF GRADIENT IS LARGER THAN  0.20

 CYCLE:   105 TIME:   0.016 TIME LEFT:  2.00D  GRAD.:     1.057 HEAT: -104.9796    
 TEST ON GRADIENT SATISFIED
                    HOWEVER, A COMPONENT OF GRADIENT IS LARGER THAN  0.20

 CYCLE:   106 TIME:   0.016 TIME LEFT:  2.00D  GRAD.:     1.165 HEAT: -104.9818    
 TEST ON GRADIENT SATISFIED
                    HOWEVER, A COMPONENT OF GRADIENT IS LARGER THAN  0.20

 CYCLE:   107 TIME:   0.016 TIME LEFT:  2.00D  GRAD.:     1.119 HEAT: -104.9834    
 TEST ON GRADIENT SATISFIED
                    HOWEVER, A COMPONENT OF GRADIENT IS LARGER THAN  0.20

 CYCLE:   108 TIME:   0.016 TIME LEFT:  2.00D  GRAD.:     1.017 HEAT: -104.9849    
 TEST ON GRADIENT SATISFIED
                    HOWEVER, A COMPONENT OF GRADIENT IS LARGER THAN  0.20

 CYCLE:   109 TIME:   0.016 TIME LEFT:  2.00D  GRAD.:     0.916 HEAT: -104.9862    
 TEST ON GRADIENT SATISFIED
                    HOWEVER, A COMPONENT OF GRADIENT IS LARGER THAN  0.20

 CYCLE:   110 TIME:   0.008 TIME LEFT:  2.00D  GRAD.:     0.926 HEAT: -104.9878    
 TEST ON GRADIENT SATISFIED
                    HOWEVER, A COMPONENT OF GRADIENT IS LARGER THAN  0.20

 CYCLE:   111 TIME:   0.023 TIME LEFT:  2.00D  GRAD.:     1.513 HEAT: -104.9905    
 TEST ON GRADIENT SATISFIED
                    HOWEVER, A COMPONENT OF GRADIENT IS LARGER THAN  0.20

 CYCLE:   112 TIME:   0.023 TIME LEFT:  2.00D  GRAD.:     1.959 HEAT: -104.9958    
 TEST ON GRADIENT SATISFIED
                    HOWEVER, A COMPONENT OF GRADIENT IS LARGER THAN  0.20

 CYCLE:   113 TIME:   0.023 TIME LEFT:  2.00D  GRAD.:     1.389 HEAT: -104.9993    
 TEST ON GRADIENT SATISFIED
                    HOWEVER, A COMPONENT OF GRADIENT IS LARGER THAN  0.20

 CYCLE:   114 TIME:   0.016 TIME LEFT:  2.00D  GRAD.:     1.341 HEAT: -105.0042    
 TEST ON GRADIENT SATISFIED
                    HOWEVER, A COMPONENT OF GRADIENT IS LARGER THAN  0.20

 CYCLE:   115 TIME:   0.016 TIME LEFT:  2.00D  GRAD.:     1.425 HEAT: -105.0087    
 TEST ON GRADIENT SATISFIED
                    HOWEVER, A COMPONENT OF GRADIENT IS LARGER THAN  0.20

 CYCLE:   116 TIME:   0.023 TIME LEFT:  2.00D  GRAD.:     1.195 HEAT: -105.0124    
 TEST ON GRADIENT SATISFIED
                    HOWEVER, A COMPONENT OF GRADIENT IS LARGER THAN  0.20

 CYCLE:   117 TIME:   0.016 TIME LEFT:  2.00D  GRAD.:     0.926 HEAT: -105.0143    
 TEST ON GRADIENT SATISFIED
                    HOWEVER, A COMPONENT OF GRADIENT IS LARGER THAN  0.20

 CYCLE:   118 TIME:   0.023 TIME LEFT:  2.00D  GRAD.:     0.764 HEAT: -105.0159    
 TEST ON GRADIENT SATISFIED
                    HOWEVER, A COMPONENT OF GRADIENT IS LARGER THAN  0.20

 CYCLE:   119 TIME:   0.016 TIME LEFT:  2.00D  GRAD.:     0.940 HEAT: -105.0181    
 TEST ON GRADIENT SATISFIED
                    HOWEVER, A COMPONENT OF GRADIENT IS LARGER THAN  0.20

 CYCLE:   120 TIME:   0.023 TIME LEFT:  2.00D  GRAD.:     1.049 HEAT: -105.0220    
 TEST ON GRADIENT SATISFIED
                    HOWEVER, A COMPONENT OF GRADIENT IS LARGER THAN  0.20

 CYCLE:   121 TIME:   0.016 TIME LEFT:  2.00D  GRAD.:     1.263 HEAT: -105.0240    
 TEST ON GRADIENT SATISFIED
                    HOWEVER, A COMPONENT OF GRADIENT IS LARGER THAN  0.20

 CYCLE:   122 TIME:   0.023 TIME LEFT:  2.00D  GRAD.:     0.812 HEAT: -105.0256    
 TEST ON GRADIENT SATISFIED
                    HOWEVER, A COMPONENT OF GRADIENT IS LARGER THAN  0.20

 CYCLE:   123 TIME:   0.016 TIME LEFT:  2.00D  GRAD.:     0.738 HEAT: -105.0268    
 TEST ON GRADIENT SATISFIED
                    HOWEVER, A COMPONENT OF GRADIENT IS LARGER THAN  0.20

 CYCLE:   124 TIME:   0.016 TIME LEFT:  2.00D  GRAD.:     0.903 HEAT: -105.0281    
 TEST ON GRADIENT SATISFIED
                    HOWEVER, A COMPONENT OF GRADIENT IS LARGER THAN  0.20

 CYCLE:   125 TIME:   0.016 TIME LEFT:  2.00D  GRAD.:     0.944 HEAT: -105.0294    
 TEST ON GRADIENT SATISFIED
                    HOWEVER, A COMPONENT OF GRADIENT IS LARGER THAN  0.20

 CYCLE:   126 TIME:   0.016 TIME LEFT:  2.00D  GRAD.:     0.767 HEAT: -105.0304    
 TEST ON GRADIENT SATISFIED
PETERS TEST SATISFIED

 -------------------------------------------------------------------------------
 BFGS PM7 MMOK PRECISE
 C13H18O2



     PETERS TEST WAS SATISFIED IN BFGS OPTIMIZATION           
     SCF FIELD WAS ACHIEVED                                   


                              PM7 CALCULATION
                                                       MOPAC2012 (Version: 14.208M)
                                                       Mon Mar 23 22:56:31 2015
                                                       No. of days left = 126




          FINAL HEAT OF FORMATION =       -105.03109 KCAL/MOL =    -439.45010 KJ/MOL


          TOTAL ENERGY            =      -2431.58980 EV
          ELECTRONIC ENERGY       =     -15251.07584 EV  POINT GROUP:     C1  
          CORE-CORE REPULSION     =      12819.48603 EV
          COSMO AREA              =        255.73 SQUARE ANGSTROMS
          COSMO VOLUME            =        277.75 CUBIC ANGSTROMS

          GRADIENT NORM           =          0.49159
          IONIZATION POTENTIAL    =          9.394070 EV
          HOMO LUMO ENERGIES (EV) =         -9.394  0.118
          NO. OF FILLED LEVELS    =         41
          MOLECULAR WEIGHT        =        206.284

          MOLECULAR DIMENSIONS (Angstroms)

            Atom       Atom       Distance
            H    32    H    14    11.10304
            H    20    H    26     5.55867
            H    18    H    24     4.62179


          SCF CALCULATIONS        =        191
 
          WALL-CLOCK TIME         =          2.367 SECONDS
          COMPUTATION TIME        =          4.367 SECONDS




   ATOM   CHEMICAL          X               Y               Z
  NUMBER   SYMBOL      (ANGSTROMS)     (ANGSTROMS)     (ANGSTROMS)
 
     1       C         -0.39922443  *  -0.57785774  *  -1.33036174  *
     2       C         -0.60885769  *   0.42986707  *   0.85325680  *
     3       C          0.93264377  *  -0.88009536  *  -1.06178800  *
     4       C          0.72128353  *   0.12430549  *   1.12258039  *
     5       C          2.93927589  *  -0.83787124  *   0.44106265  *
     6       C         -2.78111673  *   1.94304378  *  -0.82474286  *
     7       C          3.73037959  *   1.56631018  *   0.40117451  *
     8       C          5.31805356  *  -0.29444217  *  -0.17548674  *
     9       C         -1.17423651  *   0.08214164  *  -0.37518483  *
    10       C          1.50147312  *  -0.52717540  *   0.16431604  *
    11       O         -3.58002937  *   0.32348679  *   1.55865139  *
    12       O         -4.27181367  *  -1.08652276  *  -0.01948014  *
    13       C         -3.49331661  *  -0.06480463  *   0.42455777  *
    14       H         -4.86477512  *  -1.46740016  *   0.67313603  *
    15       C         -2.60372376  *   0.42816929  *  -0.69056495  *
    16       C          3.86466361  *   0.18731933  *  -0.25249982  *
    17       H         -2.91651163  *  -0.06413461  *  -1.65254423  *
    18       H         -0.83168831  *  -0.85996748  *  -2.28870195  *
    19       H         -1.21366391  *   0.93695394  *   1.60889486  *
    20       H         -3.79727589  *   2.20624916  *  -1.14040469  *
    21       H         -2.58597916  *   2.45857189  *   0.12660614  *
    22       H         -2.08418578  *   2.35362116  *  -1.56664942  *
    23       H          1.53326497  *  -1.39248694  *  -1.81015044  *
    24       H          1.15413758  *   0.39602966  *   2.08350440  *
    25       H          3.14622821  *  -0.85007480  *   1.52913431  *
    26       H          3.18573173  *  -1.85998467  *   0.08855637  *
    27       H          3.56649276  *   0.26691619  *  -1.32619679  *
    28       H          4.04448472  *   1.54889073  *   1.44973698  *
    29       H          4.34292410  *   2.31199421  *  -0.11590480  *
    30       H          2.69147170  *   1.91742402  *   0.37379224  *
    31       H          5.44894997  *  -1.26025284  *  -0.67441832  *
    32       H          5.99562965  *   0.41866598  *  -0.65795218  *
    33       H          5.64956985  *  -0.40877310  *   0.86206698  *
                             CARTESIAN COORDINATES

   1    C       -0.399224427    -0.577857735    -1.330361740
   2    C       -0.608857688     0.429867074     0.853256805
   3    C        0.932643769    -0.880095358    -1.061787995
   4    C        0.721283525     0.124305489     1.122580392
   5    C        2.939275888    -0.837871239     0.441062646
   6    C       -2.781116727     1.943043779    -0.824742861
   7    C        3.730379595     1.566310181     0.401174510
   8    C        5.318053556    -0.294442172    -0.175486735
   9    C       -1.174236507     0.082141639    -0.375184825
  10    C        1.501473115    -0.527175399     0.164316036
  11    O       -3.580029365     0.323486790     1.558651385
  12    O       -4.271813673    -1.086522763    -0.019480139
  13    C       -3.493316610    -0.064804629     0.424557767
  14    H       -4.864775124    -1.467400157     0.673136032
  15    C       -2.603723759     0.428169291    -0.690564953
  16    C        3.864663610     0.187319331    -0.252499817
  17    H       -2.916511628    -0.064134605    -1.652544229
  18    H       -0.831688310    -0.859967484    -2.288701951
  19    H       -1.213663915     0.936953936     1.608894859
  20    H       -3.797275886     2.206249165    -1.140404687
  21    H       -2.585979163     2.458571887     0.126606141
  22    H       -2.084185785     2.353621156    -1.566649421
  23    H        1.533264966    -1.392486940    -1.810150444
  24    H        1.154137579     0.396029657     2.083504398
  25    H        3.146228212    -0.850074795     1.529134307
  26    H        3.185731731    -1.859984672     0.088556368
  27    H        3.566492762     0.266916188    -1.326196789
  28    H        4.044484717     1.548890730     1.449736978
  29    H        4.342924103     2.311994212    -0.115904804
  30    H        2.691471700     1.917424017     0.373792239
  31    H        5.448949969    -1.260252843    -0.674418322
  32    H        5.995629649     0.418665981    -0.657952181
  33    H        5.649569847    -0.408773100     0.862066982


           Empirical Formula: C13 H18 O2  =    33 atoms



      MOLECULAR POINT GROUP   :   C1  


                  EIGENVALUES  
 -31.65072 -30.84050 -29.83640 -29.49909 -28.40085 -25.98557 -25.84588 -23.96503
 -23.69224 -22.87971 -21.42463 -20.49752 -19.32006 -19.23558 -17.67082 -17.12876
 -16.50871 -16.10808 -15.55587 -15.29884 -15.19690 -15.02573 -14.71307 -14.29833
 -14.12741 -13.93611 -13.65827 -13.29991 -13.08817 -12.97872 -12.75929 -12.61167
 -12.24137 -12.05774 -11.87892 -11.78678 -11.55499 -11.39859 -10.99318  -9.86581
  -9.39407   0.11762   0.22220   0.98070   2.03577   2.49157   3.26485   3.47923
   3.80753   4.04201   4.12060   4.37874   4.41102   4.63735   4.66393   4.95110
   5.08604   5.14428   5.21999   5.30068   5.47686   5.54563   5.68309   5.75512
   5.78473   5.80375   5.83968   5.88914   5.95114   5.96023   6.15129   6.22788
   6.28783   6.34773   6.50457   6.63837   6.96267   7.10219


              NET ATOMIC CHARGES AND DIPOLE CONTRIBUTIONS

  ATOM NO.   TYPE          CHARGE      No. of ELECS.   s-Pop       p-Pop       
    1          C          -0.142654        4.1427     1.08420     3.05845
    2          C          -0.137520        4.1375     1.08806     3.04946
    3          C          -0.183443        4.1834     1.08253     3.10091
    4          C          -0.179136        4.1791     1.08388     3.09526
    5          C          -0.311545        4.3115     1.06167     3.24987
    6          C          -0.432391        4.4324     1.05423     3.37816
    7          C          -0.456639        4.4566     1.05612     3.40052
    8          C          -0.457279        4.4573     1.05644     3.40084
    9          C          -0.036291        4.0363     1.06424     2.97205
   10          C           0.031218        3.9688     1.07307     2.89571
   11          O          -0.508228        6.5082     1.87579     4.63243
   12          O          -0.565299        6.5653     1.83885     4.72645
   13          C           0.641018        3.3590     1.12814     2.23084
   14          H           0.354070        0.6459     0.64593
   15          C          -0.164861        4.1649     1.06470     3.10016
   16          C          -0.046301        4.0463     1.05682     2.98948
   17          H           0.180606        0.8194     0.81939
   18          H           0.151238        0.8488     0.84876
   19          H           0.172392        0.8276     0.82761
   20          H           0.151690        0.8483     0.84831
   21          H           0.165914        0.8341     0.83409
   22          H           0.158900        0.8411     0.84110
   23          H           0.152632        0.8474     0.84737
   24          H           0.156142        0.8439     0.84386
   25          H           0.152433        0.8476     0.84757
   26          H           0.150810        0.8492     0.84919
   27          H           0.132211        0.8678     0.86779
   28          H           0.145002        0.8550     0.85500
   29          H           0.142667        0.8573     0.85733
   30          H           0.150488        0.8495     0.84951
   31          H           0.141684        0.8583     0.85832
   32          H           0.144794        0.8552     0.85521
   33          H           0.145678        0.8543     0.85432
 DIPOLE           X         Y         Z       TOTAL
 POINT-CHG.     1.568     0.333    -1.956     2.529
 HYBRID        -0.379    -0.283     0.505     0.692
 SUM            1.188     0.049    -1.452     1.877


          ATOMIC ORBITAL ELECTRON POPULATIONS

    Atom      s        px        py        pz   
    1  C   1.08420   1.00318   0.99869   1.05658
    2  C   1.08806   1.01512   1.00466   1.02968
    3  C   1.08253   1.01728   1.04348   1.04015
    4  C   1.08388   1.00451   1.02232   1.06843
    5  C   1.06167   0.99829   1.10329   1.14829
    6  C   1.05423   1.17925   1.00393   1.19499
    7  C   1.05612   1.17737   1.06955   1.15360
    8  C   1.05644   1.06421   1.15974   1.17688
    9  C   1.06424   0.95393   1.02019   0.99793
   10  C   1.07307   0.96733   0.95521   0.97317
   11  O   1.87579   1.68105   1.64433   1.30706
   12  O   1.83885   1.60396   1.57524   1.54726
   13  C   1.12814   0.72186   0.69545   0.81354
   14  H   0.64593
   15  C   1.06470   0.99531   1.02828   1.07657
   16  C   1.05682   0.95606   0.95586   1.07756
   17  H   0.81939
   18  H   0.84876
   19  H   0.82761
   20  H   0.84831
   21  H   0.83409
   22  H   0.84110
   23  H   0.84737
   24  H   0.84386
   25  H   0.84757
   26  H   0.84919
   27  H   0.86779
   28  H   0.85500
   29  H   0.85733
   30  H   0.84951
   31  H   0.85832
   32  H   0.85521
   33  H   0.85432



 TOTAL JOB TIME:             2.38 SECONDS

 == MOPAC DONE ==
