 *******************************************************************************
 ** Site#: 6541         For non-commercial use only     Version 14.208M 64BITS**
 *******************************************************************************
 ** Cite this work as:                                                        **
 **                                                                           **
 ** (a) MOPAC2012, James J. P. Stewart, Stewart Computational Chemistry,      **
 **  Version 14.208M web: HTTP://OpenMOPAC.net         Days remaining: 126    **
 **                                                                           **
 **                                 AND                                       **
 **                                                                           **
 ** (b) Maia, J.D.C., et al., J. Chem. Theory Comput. 2012, 8, 3072-3081.     **
 **                DOI: 10.1021/ct3004645.                                    **
 *******************************************************************************
 **                                                                           **
 **                                MOPAC2012                                  **
 **                                                                           **
 *******************************************************************************

                            PM7 CALCULATION RESULTS


 *******************************************************************************
 *  CALCULATION DONE:                                Mon Mar 23 23:17:50 2015  *
 *  PM7        - The PM7 Hamiltonian to be used
 *  MMOK       - APPLY MM CORRECTION TO CONH BARRIER
 *  PRECISE    - CRITERIA TO BE INCREASED BY 100 TIMES
 *  BFGS       - USE THE BFGS GEOMETRY OPTIMIZER
 *  T=         - A TIME OF 172800.0 SECONDS REQUESTED
 *  DUMP=N     - RESTART FILE WRITTEN EVERY  7200.000 SECONDS
 *******************************************************************************
 BFGS PM7 MMOK PRECISE
 C2H2S

   ATOM   CHEMICAL          X               Y               Z
  NUMBER   SYMBOL      (ANGSTROMS)     (ANGSTROMS)     (ANGSTROMS)
 
     1       S          0.75410000  *   0.00000000  *   0.00000000  *
     2       C         -0.88170000  *  -0.65500000  *   0.00000000  *
     3       C         -0.88170000  *   0.65500000  *   0.00000000  *
     4       H         -1.48700000  *  -1.54940000  *  -0.00020000  *
     5       H         -1.48700000  *   1.54940000  *   0.00020000  *
 


          CARTESIAN COORDINATES 

    NO.       ATOM         X         Y         Z

     1         S        0.7541    0.0000    0.0000
     2         C       -0.8817   -0.6550    0.0000
     3         C       -0.8817    0.6550    0.0000
     4         H       -1.4870   -1.5494   -0.0002
     5         H       -1.4870    1.5494    0.0002

     ===================== shared-memory parallel CPU Section ======================
     **                                                                           **
     **  MOPAC calculations will run in shared-memory parallel CPUs               **
     **                                                                           **
     **  Number of Threads =  2                                                   **
     **                                                                           **
     **                                                                           **
     **  For information on this work, see:                                       **
     **                                                                           **
     **  Maia, J.D.C., et al., J. Chem. Theory Comput. 2012, 8, 3072-3081.        **
     **        DOI: 10.1021/ct3004645.                                            **
     **                                                                           **
     ===================== shared-memory parallel CPU Section ======================
      


 General Reference for PM7:
 "Optimization of Parameters for Semiempirical Methods VI: More Modifications to the 
 NDDO Approximations and Re-optimization of Parameters", J. J. P. Stewart, J. Mol. Mod., 1:32, 19 (2013)
 http://www.springerlink.com/openurl.asp?genre=article&id=doi:10.1007/s00894-012-1667-x

           Empirical Formula: C2 H2 S  =     5 atoms



      MOLECULAR POINT GROUP   :   C2v 


      RHF CALCULATION, NO. OF DOUBLY OCCUPIED LEVELS =    8

      Geometry optimization using BFGS
 CYCLE:     1 TIME:   0.008 TIME LEFT:  2.00D  GRAD.:    16.322 HEAT:  69.24936    
 CYCLE:     2 TIME:   0.000 TIME LEFT:  2.00D  GRAD.:     9.118 HEAT:  69.02746    
 CYCLE:     3 TIME:   0.000 TIME LEFT:  2.00D  GRAD.:    10.797 HEAT:  68.89649    
 CYCLE:     4 TIME:   0.008 TIME LEFT:  2.00D  GRAD.:     5.254 HEAT:  68.71824    
 CYCLE:     5 TIME:   0.000 TIME LEFT:  2.00D  GRAD.:     2.479 HEAT:  68.70218    
 TEST ON GRADIENT SATISFIED
                    HOWEVER, A COMPONENT OF GRADIENT IS LARGER THAN  0.20

 CYCLE:     6 TIME:   0.000 TIME LEFT:  2.00D  GRAD.:     0.697 HEAT:  68.69901    
 TEST ON GRADIENT SATISFIED
PETERS TEST SATISFIED

 -------------------------------------------------------------------------------
 BFGS PM7 MMOK PRECISE
 C2H2S



     PETERS TEST WAS SATISFIED IN BFGS OPTIMIZATION           
     SCF FIELD WAS ACHIEVED                                   


                              PM7 CALCULATION
                                                       MOPAC2012 (Version: 14.208M)
                                                       Mon Mar 23 23:17:50 2015
                                                       No. of days left = 126




          FINAL HEAT OF FORMATION =         68.69863 KCAL/MOL =     287.43505 KJ/MOL


          TOTAL ENERGY            =       -446.92342 EV
          ELECTRONIC ENERGY       =      -1086.71695 EV  POINT GROUP:     C2v 
          CORE-CORE REPULSION     =        639.79352 EV
          COSMO AREA              =         89.82 SQUARE ANGSTROMS
          COSMO VOLUME            =         74.51 CUBIC ANGSTROMS

          GRADIENT NORM           =          0.22732
          IONIZATION POTENTIAL    =          8.696037 EV
          HOMO LUMO ENERGIES (EV) =         -8.696 -0.687
          NO. OF FILLED LEVELS    =          8
          MOLECULAR WEIGHT        =         58.098

          MOLECULAR DIMENSIONS (Angstroms)

            Atom       Atom       Distance
            H     5    H     4     3.16579
            H     4    S     1     2.21141
            C     3    C     2     0.00018


          SCF CALCULATIONS        =         14
 
          WALL-CLOCK TIME         =          0.031 SECONDS
          COMPUTATION TIME        =          0.055 SECONDS




   ATOM   CHEMICAL          X               Y               Z
  NUMBER   SYMBOL      (ANGSTROMS)     (ANGSTROMS)     (ANGSTROMS)
 
     1       S          0.79557992  *   0.00378422  *   0.00983362  *
     2       C         -0.93561653  *  -0.64872123  *   0.00120003  *
     3       C         -0.93792247  *   0.64905981  *   0.00031989  *
     4       H         -1.41205466  *  -1.58408572  *  -0.00092762  *
     5       H         -1.41952510  *   1.58169569  *  -0.00264642  *
                             CARTESIAN COORDINATES

   1    S        0.795579924     0.003784218     0.009833619
   2    C       -0.935616526    -0.648721231     0.001200033
   3    C       -0.937922473     0.649059809     0.000319892
   4    H       -1.412054658    -1.584085716    -0.000927617
   5    H       -1.419525098     1.581695687    -0.002646421


           Empirical Formula: C2 H2 S  =     5 atoms



      MOLECULAR POINT GROUP   :   C2v 


                  EIGENVALUES  
 -30.49682 -21.68909 -20.36404 -16.55031 -12.80470 -12.44991 -10.92013  -8.69604
  -0.68690  -0.37981  -0.04656   0.57932   0.65433   0.76437   1.21859   1.28300
   4.38343   5.31156   5.38398


              NET ATOMIC CHARGES AND DIPOLE CONTRIBUTIONS

  ATOM NO.   TYPE          CHARGE      No. of ELECS.   s-Pop       p-Pop       d-Pop       
    1          S          -0.105160        6.1052     1.94895     4.04676     0.10945
    2          C          -0.148015        4.1480     1.12282     3.02519
    3          C          -0.147978        4.1480     1.12274     3.02524
    4          H           0.200599        0.7994     0.79940
    5          H           0.200554        0.7994     0.79945
 DIPOLE           X         Y         Z       TOTAL
 POINT-CHG.    -1.798    -0.005    -0.009     1.798
 HYBRID         0.020    -0.000     0.000     0.020
 SUM           -1.778    -0.005    -0.009     1.778


          ATOMIC ORBITAL ELECTRON POPULATIONS

    Atom      s        px        py        pz      x^2-y^2     xz        z^2       yz        xy
    1  S   1.94895   0.80117   1.24931   1.99628   0.01324   0.01955   0.01490   0.00000   0.06176
    2  C   1.12282   0.97926   1.05383   0.99211
    3  C   1.12274   0.97936   1.05386   0.99202
    4  H   0.79940
    5  H   0.79945



 TOTAL JOB TIME:             0.03 SECONDS

 == MOPAC DONE ==
