 *******************************************************************************
 ** Site#: 6541         For non-commercial use only     Version 14.208M 64BITS**
 *******************************************************************************
 ** Cite this work as:                                                        **
 **                                                                           **
 ** (a) MOPAC2012, James J. P. Stewart, Stewart Computational Chemistry,      **
 **  Version 14.208M web: HTTP://OpenMOPAC.net         Days remaining: 126    **
 **                                                                           **
 **                                 AND                                       **
 **                                                                           **
 ** (b) Maia, J.D.C., et al., J. Chem. Theory Comput. 2012, 8, 3072-3081.     **
 **                DOI: 10.1021/ct3004645.                                    **
 *******************************************************************************
 **                                                                           **
 **                                MOPAC2012                                  **
 **                                                                           **
 *******************************************************************************

                            PM7 CALCULATION RESULTS


 *******************************************************************************
 *  CALCULATION DONE:                                Mon Mar 23 22:56:49 2015  *
 *  PM7        - The PM7 Hamiltonian to be used
 *  MMOK       - APPLY MM CORRECTION TO CONH BARRIER
 *  PRECISE    - CRITERIA TO BE INCREASED BY 100 TIMES
 *  BFGS       - USE THE BFGS GEOMETRY OPTIMIZER
 *  T=         - A TIME OF 172800.0 SECONDS REQUESTED
 *  DUMP=N     - RESTART FILE WRITTEN EVERY  7200.000 SECONDS
 *******************************************************************************
 BFGS PM7 MMOK PRECISE
 C19H28O2

   ATOM   CHEMICAL          X               Y               Z
  NUMBER   SYMBOL      (ANGSTROMS)     (ANGSTROMS)     (ANGSTROMS)
 
     1       C          0.51810000  *   0.80570000  *  -0.16190000  *
     2       C         -0.33330000  *  -0.39660000  *   0.27970000  *
     3       C          1.83030000  *   0.73390000  *   0.59680000  *
     4       C         -1.64700000  *  -0.37910000  *  -0.50280000  *
     5       C          2.55700000  *  -0.55760000  *   0.13380000  *
     6       C          3.97620000  *  -0.36930000  *   0.66060000  *
     7       C         -1.27460000  *  -0.46890000  *  -1.98400000  *
     8       C          2.57560000  *  -0.62290000  *  -1.39470000  *
     9       H          5.83650000  *  -0.90850000  *   0.06940000  *
    10       O         -5.53610000  *  -0.14610000  *   0.53230000  *
    11       C         -0.20890000  *   2.10840000  *   0.17310000  *
    12       C          0.39110000  *  -1.71670000  *   0.03320000  *
    13       C          2.86240000  *   1.81230000  *   0.24970000  *
    14       C         -1.52020000  *   2.19250000  *  -0.61650000  *
    15       C         -2.49430000  *  -1.59240000  *  -0.20500000  *
    16       C          1.77930000  *  -1.73350000  *   0.69260000  *
    17       C          4.20410000  *   1.16270000  *   0.68590000  *
    18       C         -3.49830000  *  -1.33760000  *   0.91870000  *
    19       O          4.91630000  *  -0.99530000  *  -0.21470000  *
    20       C         -4.32300000  *  -0.12530000  *   0.52940000  *
    21       C         -3.56680000  *   1.07600000  *   0.14900000  *
    22       C         -2.32470000  *   0.94110000  *  -0.30820000  *
    23       H          0.71000000  *   0.74570000  *  -1.23320000  *
    24       H         -0.54860000  *  -0.31240000  *   1.34490000  *
    25       H          1.64550000  *   0.70250000  *   1.67050000  *
    26       H         -0.42670000  *   2.13720000  *   1.24070000  *
    27       H          0.42610000  *   2.95490000  *  -0.08840000  *
    28       H         -0.20640000  *  -2.53190000  *   0.44140000  *
    29       H          0.50560000  *  -1.86450000  *  -1.04060000  *
    30       H          2.86250000  *   2.01560000  *  -0.82120000  *
    31       H          2.67310000  *   2.72400000  *   0.81640000  *
    32       H         -2.07980000  *   3.07650000  *  -0.31060000  *
    33       H         -1.30630000  *   2.24070000  *  -1.68420000  *
    34       H         -3.03760000  *  -1.87390000  *  -1.10710000  *
    35       H         -1.84210000  *  -2.41650000  *   0.08410000  *
    36       H         -0.72640000  *  -1.39340000  *  -2.16550000  *
    37       H         -2.18200000  *  -0.46000000  *  -2.58800000  *
    38       H         -0.65010000  *   0.38270000  *  -2.25400000  *
    39       H          2.29240000  *  -2.66490000  *   0.45340000  *
    40       H          1.67810000  *  -1.63150000  *   1.77310000  *
    41       H          4.06380000  *  -0.78210000  *   1.66560000  *
    42       H          3.10070000  *   0.24700000  *  -1.78910000  *
    43       H          3.08680000  *  -1.53130000  *  -1.71330000  *
    44       H          1.55240000  *  -0.63090000  *  -1.77050000  *
    45       H          4.46590000  *   1.48550000  *   1.69350000  *
    46       H          4.99580000  *   1.43470000  *  -0.01220000  *
    47       H         -4.01340000  *   2.05520000  *   0.23900000  *
    48       H         -4.14830000  *  -2.20440000  *   1.03770000  *
    49       H         -2.96850000  *  -1.14080000  *   1.85070000  *
 


          CARTESIAN COORDINATES 

    NO.       ATOM         X         Y         Z

     1         C        0.5181    0.8057   -0.1619
     2         C       -0.3333   -0.3966    0.2797
     3         C        1.8303    0.7339    0.5968
     4         C       -1.6470   -0.3791   -0.5028
     5         C        2.5570   -0.5576    0.1338
     6         C        3.9762   -0.3693    0.6606
     7         C       -1.2746   -0.4689   -1.9840
     8         C        2.5756   -0.6229   -1.3947
     9         H        5.8365   -0.9085    0.0694
    10         O       -5.5361   -0.1461    0.5323
    11         C       -0.2089    2.1084    0.1731
    12         C        0.3911   -1.7167    0.0332
    13         C        2.8624    1.8123    0.2497
    14         C       -1.5202    2.1925   -0.6165
    15         C       -2.4943   -1.5924   -0.2050
    16         C        1.7793   -1.7335    0.6926
    17         C        4.2041    1.1627    0.6859
    18         C       -3.4983   -1.3376    0.9187
    19         O        4.9163   -0.9953   -0.2147
    20         C       -4.3230   -0.1253    0.5294
    21         C       -3.5668    1.0760    0.1490
    22         C       -2.3247    0.9411   -0.3082
    23         H        0.7100    0.7457   -1.2332
    24         H       -0.5486   -0.3124    1.3449
    25         H        1.6455    0.7025    1.6705
    26         H       -0.4267    2.1372    1.2407
    27         H        0.4261    2.9549   -0.0884
    28         H       -0.2064   -2.5319    0.4414
    29         H        0.5056   -1.8645   -1.0406
    30         H        2.8625    2.0156   -0.8212
    31         H        2.6731    2.7240    0.8164
    32         H       -2.0798    3.0765   -0.3106
    33         H       -1.3063    2.2407   -1.6842
    34         H       -3.0376   -1.8739   -1.1071
    35         H       -1.8421   -2.4165    0.0841
    36         H       -0.7264   -1.3934   -2.1655
    37         H       -2.1820   -0.4600   -2.5880
    38         H       -0.6501    0.3827   -2.2540
    39         H        2.2924   -2.6649    0.4534
    40         H        1.6781   -1.6315    1.7731
    41         H        4.0638   -0.7821    1.6656
    42         H        3.1007    0.2470   -1.7891
    43         H        3.0868   -1.5313   -1.7133
    44         H        1.5524   -0.6309   -1.7705
    45         H        4.4659    1.4855    1.6935
    46         H        4.9958    1.4347   -0.0122
    47         H       -4.0134    2.0552    0.2390
    48         H       -4.1483   -2.2044    1.0377
    49         H       -2.9685   -1.1408    1.8507

     ===================== shared-memory parallel CPU Section ======================
     **                                                                           **
     **  MOPAC calculations will run in shared-memory parallel CPUs               **
     **                                                                           **
     **  Number of Threads =  2                                                   **
     **                                                                           **
     **                                                                           **
     **  For information on this work, see:                                       **
     **                                                                           **
     **  Maia, J.D.C., et al., J. Chem. Theory Comput. 2012, 8, 3072-3081.        **
     **        DOI: 10.1021/ct3004645.                                            **
     **                                                                           **
     ===================== shared-memory parallel CPU Section ======================
      


 General Reference for PM7:
 "Optimization of Parameters for Semiempirical Methods VI: More Modifications to the 
 NDDO Approximations and Re-optimization of Parameters", J. J. P. Stewart, J. Mol. Mod., 1:32, 19 (2013)
 http://www.springerlink.com/openurl.asp?genre=article&id=doi:10.1007/s00894-012-1667-x

           Empirical Formula: C19 H28 O2  =    49 atoms



      MOLECULAR POINT GROUP   :   C1  


      RHF CALCULATION, NO. OF DOUBLY OCCUPIED LEVELS =   58

      Geometry optimization using BFGS
 CYCLE:     1 TIME:   0.078 TIME LEFT:  2.00D  GRAD.:    85.256 HEAT: -100.5188    
 CYCLE:     2 TIME:   0.039 TIME LEFT:  2.00D  GRAD.:    67.994 HEAT: -102.8043    
 CYCLE:     3 TIME:   0.039 TIME LEFT:  2.00D  GRAD.:    53.602 HEAT: -104.5490    
 CYCLE:     4 TIME:   0.039 TIME LEFT:  2.00D  GRAD.:    83.995 HEAT: -104.5509    
 CYCLE:     5 TIME:   0.039 TIME LEFT:  2.00D  GRAD.:    61.569 HEAT: -106.5518    
 CYCLE:     6 TIME:   0.047 TIME LEFT:  2.00D  GRAD.:    38.509 HEAT: -108.0268    
 CYCLE:     7 TIME:   0.039 TIME LEFT:  2.00D  GRAD.:    26.313 HEAT: -108.7802    
 CYCLE:     8 TIME:   0.031 TIME LEFT:  2.00D  GRAD.:    34.654 HEAT: -109.0560    
 CYCLE:     9 TIME:   0.039 TIME LEFT:  2.00D  GRAD.:    38.435 HEAT: -109.4770    
 CYCLE:    10 TIME:   0.047 TIME LEFT:  2.00D  GRAD.:    28.539 HEAT: -109.9790    
 CYCLE:    11 TIME:   0.047 TIME LEFT:  2.00D  GRAD.:    19.119 HEAT: -110.2344    
 CYCLE:    12 TIME:   0.031 TIME LEFT:  2.00D  GRAD.:    20.465 HEAT: -110.4165    
 CYCLE:    13 TIME:   0.023 TIME LEFT:  2.00D  GRAD.:    20.739 HEAT: -110.6165    
 CYCLE:    14 TIME:   0.039 TIME LEFT:  2.00D  GRAD.:    19.690 HEAT: -110.8586    
 CYCLE:    15 TIME:   0.039 TIME LEFT:  2.00D  GRAD.:    20.258 HEAT: -111.0010    
 CYCLE:    16 TIME:   0.023 TIME LEFT:  2.00D  GRAD.:    22.891 HEAT: -111.1995    
 CYCLE:    17 TIME:   0.031 TIME LEFT:  2.00D  GRAD.:    20.772 HEAT: -111.3062    
 CYCLE:    18 TIME:   0.031 TIME LEFT:  2.00D  GRAD.:    17.536 HEAT: -111.5115    
 CYCLE:    19 TIME:   0.031 TIME LEFT:  2.00D  GRAD.:    10.321 HEAT: -111.6647    
 CYCLE:    20 TIME:   0.031 TIME LEFT:  2.00D  GRAD.:    11.015 HEAT: -111.7262    
 CYCLE:    21 TIME:   0.031 TIME LEFT:  2.00D  GRAD.:    14.373 HEAT: -111.7483    
 CYCLE:    22 TIME:   0.031 TIME LEFT:  2.00D  GRAD.:     6.484 HEAT: -111.8492    
 CYCLE:    23 TIME:   0.031 TIME LEFT:  2.00D  GRAD.:     5.653 HEAT: -111.8783    
 CYCLE:    24 TIME:   0.039 TIME LEFT:  2.00D  GRAD.:     5.779 HEAT: -111.9084    
 CYCLE:    25 TIME:   0.031 TIME LEFT:  2.00D  GRAD.:     4.751 HEAT: -111.9475    
 CYCLE:    26 TIME:   0.031 TIME LEFT:  2.00D  GRAD.:     4.682 HEAT: -111.9798    
 CYCLE:    27 TIME:   0.023 TIME LEFT:  2.00D  GRAD.:     4.633 HEAT: -112.0188    
 CYCLE:    28 TIME:   0.039 TIME LEFT:  2.00D  GRAD.:     5.233 HEAT: -112.0591    
 CYCLE:    29 TIME:   0.039 TIME LEFT:  2.00D  GRAD.:     6.277 HEAT: -112.1091    
 CYCLE:    30 TIME:   0.031 TIME LEFT:  2.00D  GRAD.:     7.921 HEAT: -112.1663    
 CYCLE:    31 TIME:   0.031 TIME LEFT:  2.00D  GRAD.:     8.022 HEAT: -112.2370    
 CYCLE:    32 TIME:   0.031 TIME LEFT:  2.00D  GRAD.:     7.019 HEAT: -112.3097    
 CYCLE:    33 TIME:   0.031 TIME LEFT:  2.00D  GRAD.:     6.039 HEAT: -112.3850    
 CYCLE:    34 TIME:   0.031 TIME LEFT:  2.00D  GRAD.:     6.279 HEAT: -112.4381    
 CYCLE:    35 TIME:   0.031 TIME LEFT:  2.00D  GRAD.:     6.132 HEAT: -112.4998    
 CYCLE:    36 TIME:   0.031 TIME LEFT:  2.00D  GRAD.:     6.640 HEAT: -112.5564    
 CYCLE:    37 TIME:   0.023 TIME LEFT:  2.00D  GRAD.:     6.496 HEAT: -112.6047    
 CYCLE:    38 TIME:   0.031 TIME LEFT:  2.00D  GRAD.:     6.369 HEAT: -112.6583    
 CYCLE:    39 TIME:   0.031 TIME LEFT:  2.00D  GRAD.:     5.691 HEAT: -112.7145    
 CYCLE:    40 TIME:   0.031 TIME LEFT:  2.00D  GRAD.:     6.812 HEAT: -112.7569    
 CYCLE:    41 TIME:   0.039 TIME LEFT:  2.00D  GRAD.:     5.487 HEAT: -112.7994    
 CYCLE:    42 TIME:   0.039 TIME LEFT:  2.00D  GRAD.:     5.002 HEAT: -112.8423    
 CYCLE:    43 TIME:   0.023 TIME LEFT:  2.00D  GRAD.:     4.855 HEAT: -112.8757    
 CYCLE:    44 TIME:   0.031 TIME LEFT:  2.00D  GRAD.:     5.257 HEAT: -112.9161    
 CYCLE:    45 TIME:   0.039 TIME LEFT:  2.00D  GRAD.:     4.759 HEAT: -112.9488    
 CYCLE:    46 TIME:   0.031 TIME LEFT:  2.00D  GRAD.:     4.036 HEAT: -112.9798    
 CYCLE:    47 TIME:   0.023 TIME LEFT:  2.00D  GRAD.:     4.022 HEAT: -113.0052    
 CYCLE:    48 TIME:   0.039 TIME LEFT:  2.00D  GRAD.:     3.676 HEAT: -113.0231    
 CYCLE:    49 TIME:   0.031 TIME LEFT:  2.00D  GRAD.:     3.295 HEAT: -113.0414    
 CYCLE:    50 TIME:   0.031 TIME LEFT:  2.00D  GRAD.:     2.986 HEAT: -113.0559    
 CYCLE:    51 TIME:   0.031 TIME LEFT:  2.00D  GRAD.:     3.188 HEAT: -113.0697    
 CYCLE:    52 TIME:   0.031 TIME LEFT:  2.00D  GRAD.:     3.815 HEAT: -113.0876    
 CYCLE:    53 TIME:   0.031 TIME LEFT:  2.00D  GRAD.:     4.012 HEAT: -113.1101    
 CYCLE:    54 TIME:   0.031 TIME LEFT:  2.00D  GRAD.:     3.637 HEAT: -113.1331    
 CYCLE:    55 TIME:   0.031 TIME LEFT:  2.00D  GRAD.:     3.123 HEAT: -113.1562    
 CYCLE:    56 TIME:   0.031 TIME LEFT:  2.00D  GRAD.:     3.215 HEAT: -113.1782    
 CYCLE:    57 TIME:   0.031 TIME LEFT:  2.00D  GRAD.:     3.162 HEAT: -113.1988    
 CYCLE:    58 TIME:   0.031 TIME LEFT:  2.00D  GRAD.:     3.435 HEAT: -113.2195    
 CYCLE:    59 TIME:   0.039 TIME LEFT:  2.00D  GRAD.:     3.326 HEAT: -113.2419    
 CYCLE:    60 TIME:   0.023 TIME LEFT:  2.00D  GRAD.:     4.090 HEAT: -113.2667    
 CYCLE:    61 TIME:   0.039 TIME LEFT:  2.00D  GRAD.:     4.113 HEAT: -113.2980    
 CYCLE:    62 TIME:   0.031 TIME LEFT:  2.00D  GRAD.:     4.737 HEAT: -113.3210    
 CYCLE:    63 TIME:   0.031 TIME LEFT:  2.00D  GRAD.:     3.268 HEAT: -113.3416    
 CYCLE:    64 TIME:   0.031 TIME LEFT:  2.00D  GRAD.:     2.817 HEAT: -113.3557    
 CYCLE:    65 TIME:   0.031 TIME LEFT:  2.00D  GRAD.:     2.958 HEAT: -113.3702    
 CYCLE:    66 TIME:   0.031 TIME LEFT:  2.00D  GRAD.:     2.833 HEAT: -113.3842    
 CYCLE:    67 TIME:   0.031 TIME LEFT:  2.00D  GRAD.:     3.009 HEAT: -113.3994    
 CYCLE:    68 TIME:   0.039 TIME LEFT:  2.00D  GRAD.:     3.510 HEAT: -113.4174    
 CYCLE:    69 TIME:   0.031 TIME LEFT:  2.00D  GRAD.:     3.840 HEAT: -113.4360    
 CYCLE:    70 TIME:   0.023 TIME LEFT:  2.00D  GRAD.:     3.707 HEAT: -113.4587    
 CYCLE:    71 TIME:   0.039 TIME LEFT:  2.00D  GRAD.:     3.176 HEAT: -113.4776    
 CYCLE:    72 TIME:   0.031 TIME LEFT:  2.00D  GRAD.:     3.016 HEAT: -113.4937    
 CYCLE:    73 TIME:   0.023 TIME LEFT:  2.00D  GRAD.:     2.816 HEAT: -113.5063    
 CYCLE:    74 TIME:   0.039 TIME LEFT:  2.00D  GRAD.:     2.473 HEAT: -113.5177    
 TEST ON GRADIENT SATISFIED
                    HOWEVER, A COMPONENT OF GRADIENT IS LARGER THAN  0.20

 CYCLE:    75 TIME:   0.031 TIME LEFT:  2.00D  GRAD.:     2.303 HEAT: -113.5269    
 TEST ON GRADIENT SATISFIED
                    HOWEVER, A COMPONENT OF GRADIENT IS LARGER THAN  0.20

 CYCLE:    76 TIME:   0.031 TIME LEFT:  2.00D  GRAD.:     2.001 HEAT: -113.5351    
 TEST ON GRADIENT SATISFIED
                    HOWEVER, A COMPONENT OF GRADIENT IS LARGER THAN  0.20

 CYCLE:    77 TIME:   0.031 TIME LEFT:  2.00D  GRAD.:     1.725 HEAT: -113.5422    
 TEST ON GRADIENT SATISFIED
                    HOWEVER, A COMPONENT OF GRADIENT IS LARGER THAN  0.20

 CYCLE:    78 TIME:   0.031 TIME LEFT:  2.00D  GRAD.:     1.385 HEAT: -113.5476    
 TEST ON GRADIENT SATISFIED
                    HOWEVER, A COMPONENT OF GRADIENT IS LARGER THAN  0.20

 CYCLE:    79 TIME:   0.031 TIME LEFT:  2.00D  GRAD.:     1.303 HEAT: -113.5513    
 TEST ON GRADIENT SATISFIED
                    HOWEVER, A COMPONENT OF GRADIENT IS LARGER THAN  0.20

 CYCLE:    80 TIME:   0.023 TIME LEFT:  2.00D  GRAD.:     1.413 HEAT: -113.5547    
 TEST ON GRADIENT SATISFIED
                    HOWEVER, A COMPONENT OF GRADIENT IS LARGER THAN  0.20

 CYCLE:    81 TIME:   0.031 TIME LEFT:  2.00D  GRAD.:     1.398 HEAT: -113.5582    
 TEST ON GRADIENT SATISFIED
                    HOWEVER, A COMPONENT OF GRADIENT IS LARGER THAN  0.20

 CYCLE:    82 TIME:   0.031 TIME LEFT:  2.00D  GRAD.:     1.366 HEAT: -113.5613    
 TEST ON GRADIENT SATISFIED
                    HOWEVER, A COMPONENT OF GRADIENT IS LARGER THAN  0.20

 CYCLE:    83 TIME:   0.031 TIME LEFT:  2.00D  GRAD.:     1.046 HEAT: -113.5637    
 TEST ON GRADIENT SATISFIED
                    HOWEVER, A COMPONENT OF GRADIENT IS LARGER THAN  0.20

 CYCLE:    84 TIME:   0.031 TIME LEFT:  2.00D  GRAD.:     0.999 HEAT: -113.5653    
 TEST ON GRADIENT SATISFIED
                    HOWEVER, A COMPONENT OF GRADIENT IS LARGER THAN  0.20

 CYCLE:    85 TIME:   0.031 TIME LEFT:  2.00D  GRAD.:     0.846 HEAT: -113.5666    
 TEST ON GRADIENT SATISFIED
                    HOWEVER, A COMPONENT OF GRADIENT IS LARGER THAN  0.20

 CYCLE:    86 TIME:   0.031 TIME LEFT:  2.00D  GRAD.:     0.712 HEAT: -113.5677    
 TEST ON GRADIENT SATISFIED
                    HOWEVER, A COMPONENT OF GRADIENT IS LARGER THAN  0.20

 CYCLE:    87 TIME:   0.031 TIME LEFT:  2.00D  GRAD.:     0.731 HEAT: -113.5685    
 TEST ON GRADIENT SATISFIED
                    HOWEVER, A COMPONENT OF GRADIENT IS LARGER THAN  0.20

           THERE HAVE BEEN 3 ATTEMPTS TO REDUCE THE GRADIENT.
           DURING THESE ATTEMPTS THE ENERGY DROPPED BY LESS THAN 0.0 KCAL/MOLE
           FURTHER CALCULATION IS NOT JUSTIFIED AT THIS TIME.

 -------------------------------------------------------------------------------
 BFGS PM7 MMOK PRECISE
 C19H28O2



     GRADIENT TEST NOT PASSED, BUT FURTHER WORK NOT JUSTIFIED 
     SCF FIELD WAS ACHIEVED                                   


                              PM7 CALCULATION
                                                       MOPAC2012 (Version: 14.208M)
                                                       Mon Mar 23 22:56:52 2015
                                                       No. of days left = 126




          FINAL HEAT OF FORMATION =       -113.56931 KCAL/MOL =    -475.17401 KJ/MOL


          TOTAL ENERGY            =      -3303.60565 EV
          ELECTRONIC ENERGY       =     -28198.62159 EV  POINT GROUP:     C1  
          CORE-CORE REPULSION     =      24895.01594 EV
          COSMO AREA              =        297.36 SQUARE ANGSTROMS
          COSMO VOLUME            =        372.09 CUBIC ANGSTROMS

          GRADIENT NORM           =          0.64746
          IONIZATION POTENTIAL    =          9.733466 EV
          HOMO LUMO ENERGIES (EV) =         -9.733  0.063
          NO. OF FILLED LEVELS    =         58
          MOLECULAR WEIGHT        =        288.429

          MOLECULAR DIMENSIONS (Angstroms)

            Atom       Atom       Distance
            O    10    H     9    11.07234
            H    45    H    36     5.88558
            H    48    H    33     5.49641


          SCF CALCULATIONS        =         99
 
          WALL-CLOCK TIME         =          3.008 SECONDS
          COMPUTATION TIME        =          5.656 SECONDS




   ATOM   CHEMICAL          X               Y               Z
  NUMBER   SYMBOL      (ANGSTROMS)     (ANGSTROMS)     (ANGSTROMS)
 
     1       C          0.48524482  *   0.80972593  *  -0.32671050  *
     2       C         -0.38879175  *  -0.41841938  *   0.06046621  *
     3       C          1.77048313  *   0.71550733  *   0.49362478  *
     4       C         -1.75442310  *  -0.37511055  *  -0.68804456  *
     5       C          2.57300411  *  -0.55959758  *   0.10581760  *
     6       C          3.86676909  *  -0.32959032  *   0.93486523  *
     7       C         -1.58138703  *  -0.46758376  *  -2.21389530  *
     8       C          2.94700389  *  -0.64382250  *  -1.37632569  *
     9       H          5.75319379  *  -0.90274854  *   0.77578958  *
    10       O         -5.25891263  *  -0.01724012  *   1.51485023  *
    11       C         -0.25142130  *   2.12548858  *  -0.03384800  *
    12       C          0.37119695  *  -1.73537067  *  -0.18782060  *
    13       C          2.80477074  *   1.84703720  *   0.38532790  *
    14       C         -1.60611281  *   2.16289357  *  -0.75918488  *
    15       C         -2.67337128  *  -1.55056110  *  -0.27185715  *
    16       C          1.73888292  *  -1.77491042  *   0.51801116  *
    17       C          4.12332299  *   1.19952710  *   0.86973946  *
    18       C         -3.33011835  *  -1.34369297  *   1.09028108  *
    19       O          4.90708991  *  -1.05513260  *   0.31613025  *
    20       C         -4.14842388  *  -0.07374866  *   1.04436871  *
    21       C         -3.47979714  *   1.08122590  *   0.43143856  *
    22       C         -2.37893431  *   0.95675328  *  -0.32283182  *
    23       H          0.72620277  *   0.76772898  *  -1.41330915  *
    24       H         -0.60965107  *  -0.35041001  *   1.15438848  *
    25       H          1.47796744  *   0.63318877  *   1.57225058  *
    26       H         -0.40587923  *   2.24407571  *   1.05561042  *
    27       H          0.36929599  *   2.98409061  *  -0.34879779  *
    28       H         -0.23538927  *  -2.59117420  *   0.16533593  *
    29       H          0.51263996  *  -1.89041301  *  -1.27375950  *
    30       H          2.89546837  *   2.20932855  *  -0.65100885  *
    31       H          2.52770787  *   2.71718206  *   0.99764130  *
    32       H         -2.13912515  *   3.10503164  *  -0.52364420  *
    33       H         -1.46250584  *   2.17587335  *  -1.85714469  *
    34       H         -3.46822886  *  -1.67897135  *  -1.03650245  *
    35       H         -2.10810784  *  -2.50084525  *  -0.28168802  *
    36       H         -1.27087034  *  -1.47371350  *  -2.51824417  *
    37       H         -2.51968369  *  -0.23947013  *  -2.73344928  *
    38       H         -0.82280267  *   0.22858283  *  -2.58791449  *
    39       H          2.27176291  *  -2.70904880  *   0.25873737  *
    40       H          1.60007365  *  -1.80072110  *   1.61375101  *
    41       H          3.76792538  *  -0.69473714  *   1.97542072  *
    42       H          3.53697411  *   0.22372674  *  -1.69158854  *
    43       H          3.57057857  *  -1.53038730  *  -1.56209230  *
    44       H          2.07063043  *  -0.71004724  *  -2.02585936  *
    45       H          4.42612925  *   1.59617050  *   1.84833905  *
    46       H          4.94711413  *   1.41525905  *   0.16972904  *
    47       H         -3.92893615  *   2.04553335  *   0.66157020  *
    48       H         -3.96864554  *  -2.20882985  *   1.35722228  *
    49       H         -2.57551167  *  -1.26839890  *   1.89735487  *
                             CARTESIAN COORDINATES

   1    C        0.485244816     0.809725927    -0.326710500
   2    C       -0.388791754    -0.418419376     0.060466209
   3    C        1.770483128     0.715507329     0.493624781
   4    C       -1.754423105    -0.375110547    -0.688044556
   5    C        2.573004114    -0.559597583     0.105817602
   6    C        3.866769091    -0.329590321     0.934865233
   7    C       -1.581387035    -0.467583760    -2.213895299
   8    C        2.947003893    -0.643822502    -1.376325694
   9    H        5.753193794    -0.902748537     0.775789575
  10    O       -5.258912627    -0.017240121     1.514850234
  11    C       -0.251421301     2.125488584    -0.033848003
  12    C        0.371196954    -1.735370674    -0.187820601
  13    C        2.804770736     1.847037200     0.385327903
  14    C       -1.606112813     2.162893570    -0.759184876
  15    C       -2.673371281    -1.550561098    -0.271857148
  16    C        1.738882916    -1.774910419     0.518011158
  17    C        4.123322991     1.199527098     0.869739459
  18    C       -3.330118346    -1.343692968     1.090281083
  19    O        4.907089909    -1.055132604     0.316130251
  20    C       -4.148423880    -0.073748661     1.044368705
  21    C       -3.479797135     1.081225905     0.431438564
  22    C       -2.378934314     0.956753277    -0.322831817
  23    H        0.726202772     0.767728975    -1.413309149
  24    H       -0.609651071    -0.350410014     1.154388479
  25    H        1.477967444     0.633188771     1.572250578
  26    H       -0.405879235     2.244075708     1.055610423
  27    H        0.369295989     2.984090609    -0.348797790
  28    H       -0.235389266    -2.591174203     0.165335934
  29    H        0.512639959    -1.890413007    -1.273759496
  30    H        2.895468373     2.209328549    -0.651008847
  31    H        2.527707870     2.717182060     0.997641296
  32    H       -2.139125153     3.105031637    -0.523644203
  33    H       -1.462505838     2.175873348    -1.857144686
  34    H       -3.468228857    -1.678971346    -1.036502446
  35    H       -2.108107842    -2.500845255    -0.281688020
  36    H       -1.270870344    -1.473713496    -2.518244166
  37    H       -2.519683686    -0.239470134    -2.733449275
  38    H       -0.822802672     0.228582826    -2.587914490
  39    H        2.271762907    -2.709048801     0.258737370
  40    H        1.600073651    -1.800721095     1.613751012
  41    H        3.767925383    -0.694737143     1.975420720
  42    H        3.536974106     0.223726738    -1.691588541
  43    H        3.570578575    -1.530387304    -1.562092304
  44    H        2.070630428    -0.710047244    -2.025859360
  45    H        4.426129247     1.596170496     1.848339050
  46    H        4.947114133     1.415259055     0.169729038
  47    H       -3.928936148     2.045533346     0.661570197
  48    H       -3.968645543    -2.208829852     1.357222278
  49    H       -2.575511667    -1.268398896     1.897354868


           Empirical Formula: C19 H28 O2  =    49 atoms



      MOLECULAR POINT GROUP   :   C1  


                  EIGENVALUES  
 -32.14661 -31.14618 -30.52445 -29.23824 -28.64639 -28.11668 -26.90353 -26.30868
 -25.17081 -24.64049 -23.62056 -23.47011 -22.71456 -21.82322 -21.20731 -20.51543
 -19.52328 -19.09766 -19.02185 -18.14171 -17.44206 -16.96378 -16.62994 -16.56505
 -16.12635 -15.65427 -15.49893 -15.24073 -14.98640 -14.93899 -14.44936 -14.24465
 -14.08568 -13.92910 -13.80614 -13.75958 -13.45467 -13.42474 -13.26323 -13.07025
 -12.99207 -12.79494 -12.53105 -12.49096 -12.38374 -12.14858 -12.06986 -11.96378
 -11.65886 -11.50818 -11.34335 -11.23782 -10.92808 -10.79605 -10.56412 -10.54886
  -9.97005  -9.73347   0.06331   1.86716   2.80082   3.12550   3.19262   3.37561
   3.48886   3.58715   3.70628   3.75046   3.83011   3.99641   4.08173   4.20668
   4.23500   4.27482   4.36934   4.42978   4.55330   4.70462   4.74345   4.82170
   4.85921   5.05185   5.08682   5.22927   5.28582   5.38371   5.51001   5.52565
   5.58121   5.62737   5.63085   5.67352   5.84846   5.85777   5.97261   5.99378
   6.04963   6.12145   6.12377   6.16731   6.18963   6.25281   6.28158   6.32628
   6.35132   6.35913   6.44973   6.50339   6.52580   6.65353   6.82335   7.35393


              NET ATOMIC CHARGES AND DIPOLE CONTRIBUTIONS

  ATOM NO.   TYPE          CHARGE      No. of ELECS.   s-Pop       p-Pop       
    1          C          -0.123423        4.1234     1.06816     3.05526
    2          C          -0.123461        4.1235     1.07589     3.04757
    3          C          -0.151975        4.1520     1.07446     3.07751
    4          C           0.037072        3.9629     1.06450     2.89843
    5          C           0.053378        3.9466     1.06882     2.87780
    6          C           0.130928        3.8691     1.09811     2.77096
    7          C          -0.457585        4.4576     1.05859     3.39900
    8          C          -0.441679        4.4417     1.05416     3.38752
    9          H           0.310208        0.6898     0.68979
   10          O          -0.465282        6.4653     1.87812     4.58717
   11          C          -0.273606        4.2736     1.06211     3.21150
   12          C          -0.276245        4.2762     1.06248     3.21376
   13          C          -0.270635        4.2706     1.06287     3.20776
   14          C          -0.303213        4.3032     1.05873     3.24448
   15          C          -0.280299        4.2803     1.06404     3.21626
   16          C          -0.294644        4.2946     1.06387     3.23077
   17          C          -0.334304        4.3343     1.07379     3.26051
   18          C          -0.384537        4.3845     1.06968     3.31486
   19          O          -0.557643        6.5576     1.84675     4.71089
   20          C           0.495035        3.5050     1.10934     2.39562
   21          C          -0.376121        4.3761     1.09299     3.28313
   22          C           0.109798        3.8902     1.10054     2.78966
   23          H           0.145075        0.8549     0.85492
   24          H           0.141070        0.8589     0.85893
   25          H           0.139276        0.8607     0.86072
   26          H           0.145946        0.8541     0.85405
   27          H           0.141185        0.8588     0.85882
   28          H           0.137280        0.8627     0.86272
   29          H           0.143502        0.8565     0.85650
   30          H           0.141149        0.8589     0.85885
   31          H           0.134857        0.8651     0.86514
   32          H           0.152531        0.8475     0.84747
   33          H           0.156050        0.8439     0.84395
   34          H           0.150859        0.8491     0.84914
   35          H           0.147076        0.8529     0.85292
   36          H           0.150281        0.8497     0.84972
   37          H           0.151466        0.8485     0.84853
   38          H           0.150960        0.8490     0.84904
   39          H           0.149655        0.8503     0.85035
   40          H           0.136268        0.8637     0.86373
   41          H           0.110097        0.8899     0.88990
   42          H           0.148643        0.8514     0.85136
   43          H           0.162601        0.8374     0.83740
   44          H           0.138176        0.8618     0.86182
   45          H           0.136476        0.8635     0.86352
   46          H           0.152413        0.8476     0.84759
   47          H           0.178480        0.8215     0.82152
   48          H           0.170388        0.8296     0.82961
   49          H           0.166475        0.8335     0.83353
 DIPOLE           X         Y         Z       TOTAL
 POINT-CHG.     4.244     0.659    -0.920     4.392
 HYBRID         0.333     0.097    -0.023     0.347
 SUM            4.577     0.756    -0.944     4.734


          ATOMIC ORBITAL ELECTRON POPULATIONS

    Atom      s        px        py        pz   
    1  C   1.06816   0.98271   0.96945   1.10310
    2  C   1.07589   0.96588   0.98394   1.09775
    3  C   1.07446   0.98425   0.99435   1.09891
    4  C   1.06450   0.97746   0.95585   0.96512
    5  C   1.06882   0.94212   0.95976   0.97592
    6  C   1.09811   0.86480   0.90267   1.00349
    7  C   1.05859   1.17873   1.18107   1.03920
    8  C   1.05416   1.15777   1.19033   1.03942
    9  H   0.68979
   10  O   1.87812   1.29014   1.86884   1.42819
   11  C   1.06211   1.01573   1.06812   1.12764
   12  C   1.06248   1.02596   1.05262   1.13518
   13  C   1.06287   0.99870   1.05958   1.14949
   14  C   1.05873   1.04121   1.07218   1.13109
   15  C   1.06404   1.09864   1.07902   1.03860
   16  C   1.06387   1.02478   1.08879   1.11719
   17  C   1.07379   1.07060   1.03841   1.15150
   18  C   1.06968   1.13317   1.11425   1.06744
   19  O   1.84675   1.31816   1.74616   1.64657
   20  C   1.10934   0.80886   0.88080   0.70596
   21  C   1.09299   1.06735   1.11162   1.10416
   22  C   1.10054   0.92262   0.97469   0.89235
   23  H   0.85492
   24  H   0.85893
   25  H   0.86072
   26  H   0.85405
   27  H   0.85882
   28  H   0.86272
   29  H   0.85650
   30  H   0.85885
   31  H   0.86514
   32  H   0.84747
   33  H   0.84395
   34  H   0.84914
   35  H   0.85292
   36  H   0.84972
   37  H   0.84853
   38  H   0.84904
   39  H   0.85035
   40  H   0.86373
   41  H   0.88990
   42  H   0.85136
   43  H   0.83740
   44  H   0.86182
   45  H   0.86352
   46  H   0.84759
   47  H   0.82152
   48  H   0.82961
   49  H   0.83353



 TOTAL JOB TIME:             3.02 SECONDS

 == MOPAC DONE ==
