 *******************************************************************************
 ** Site#: 6541         For non-commercial use only     Version 14.208M 64BITS**
 *******************************************************************************
 ** Cite this work as:                                                        **
 **                                                                           **
 ** (a) MOPAC2012, James J. P. Stewart, Stewart Computational Chemistry,      **
 **  Version 14.208M web: HTTP://OpenMOPAC.net         Days remaining: 126    **
 **                                                                           **
 **                                 AND                                       **
 **                                                                           **
 ** (b) Maia, J.D.C., et al., J. Chem. Theory Comput. 2012, 8, 3072-3081.     **
 **                DOI: 10.1021/ct3004645.                                    **
 *******************************************************************************
 **                                                                           **
 **                                MOPAC2012                                  **
 **                                                                           **
 *******************************************************************************

                            PM7 CALCULATION RESULTS


 *******************************************************************************
 *  CALCULATION DONE:                                Mon Mar 23 22:56:57 2015  *
 *  PM7        - The PM7 Hamiltonian to be used
 *  MMOK       - APPLY MM CORRECTION TO CONH BARRIER
 *  PRECISE    - CRITERIA TO BE INCREASED BY 100 TIMES
 *  BFGS       - USE THE BFGS GEOMETRY OPTIMIZER
 *  T=         - A TIME OF 172800.0 SECONDS REQUESTED
 *  DUMP=N     - RESTART FILE WRITTEN EVERY  7200.000 SECONDS
 *******************************************************************************
 BFGS PM7 MMOK PRECISE
 C6H6

   ATOM   CHEMICAL          X               Y               Z
  NUMBER   SYMBOL      (ANGSTROMS)     (ANGSTROMS)     (ANGSTROMS)
 
     1       C          0.16410000  *  -1.37260000  *  -0.00020000  *
     2       C         -1.10660000  *  -0.82840000  *   0.00010000  *
     3       C         -1.27070000  *   0.54420000  *   0.00000000  *
     4       C         -0.16410000  *   1.37260000  *   0.00000000  *
     5       C          1.10660000  *   0.82840000  *   0.00060000  *
     6       C          1.27070000  *  -0.54420000  *  -0.00070000  *
     7       H          0.29230000  *  -2.44490000  *   0.00440000  *
     8       H         -1.97120000  *  -1.47560000  *   0.00000000  *
     9       H         -2.26350000  *   0.96930000  *  -0.00050000  *
    10       H         -0.29230000  *   2.44490000  *  -0.00080000  *
    11       H          1.97120000  *   1.47560000  *  -0.00010000  *
    12       H          2.26350000  *  -0.96930000  *   0.00020000  *
 


          CARTESIAN COORDINATES 

    NO.       ATOM         X         Y         Z

     1         C        0.1641   -1.3726   -0.0002
     2         C       -1.1066   -0.8284    0.0001
     3         C       -1.2707    0.5442    0.0000
     4         C       -0.1641    1.3726    0.0000
     5         C        1.1066    0.8284    0.0006
     6         C        1.2707   -0.5442   -0.0007
     7         H        0.2923   -2.4449    0.0044
     8         H       -1.9712   -1.4756    0.0000
     9         H       -2.2635    0.9693   -0.0005
    10         H       -0.2923    2.4449   -0.0008
    11         H        1.9712    1.4756   -0.0001
    12         H        2.2635   -0.9693    0.0002

     ===================== shared-memory parallel CPU Section ======================
     **                                                                           **
     **  MOPAC calculations will run in shared-memory parallel CPUs               **
     **                                                                           **
     **  Number of Threads =  2                                                   **
     **                                                                           **
     **                                                                           **
     **  For information on this work, see:                                       **
     **                                                                           **
     **  Maia, J.D.C., et al., J. Chem. Theory Comput. 2012, 8, 3072-3081.        **
     **        DOI: 10.1021/ct3004645.                                            **
     **                                                                           **
     ===================== shared-memory parallel CPU Section ======================
      


 General Reference for PM7:
 "Optimization of Parameters for Semiempirical Methods VI: More Modifications to the 
 NDDO Approximations and Re-optimization of Parameters", J. J. P. Stewart, J. Mol. Mod., 1:32, 19 (2013)
 http://www.springerlink.com/openurl.asp?genre=article&id=doi:10.1007/s00894-012-1667-x

           Empirical Formula: C6 H6  =    12 atoms



      MOLECULAR POINT GROUP   :   D6h 


      RHF CALCULATION, NO. OF DOUBLY OCCUPIED LEVELS =   15

      Geometry optimization using BFGS
 CYCLE:     1 TIME:   0.008 TIME LEFT:  2.00D  GRAD.:    27.097 HEAT:  23.20323    
 CYCLE:     2 TIME:   0.000 TIME LEFT:  2.00D  GRAD.:     8.767 HEAT:  23.00610    
 CYCLE:     3 TIME:   0.008 TIME LEFT:  2.00D  GRAD.:     4.185 HEAT:  22.97274    
 CYCLE:     4 TIME:   0.000 TIME LEFT:  2.00D  GRAD.:     2.091 HEAT:  22.96362    
 CYCLE:     5 TIME:   0.000 TIME LEFT:  2.00D  GRAD.:     2.078 HEAT:  22.96110    
 CYCLE:     6 TIME:   0.008 TIME LEFT:  2.00D  GRAD.:     1.590 HEAT:  22.95885    
 TEST ON GRADIENT SATISFIED
                    HOWEVER, A COMPONENT OF GRADIENT IS LARGER THAN  0.20

 CYCLE:     7 TIME:   0.000 TIME LEFT:  2.00D  GRAD.:     1.117 HEAT:  22.95782    
 TEST ON GRADIENT SATISFIED
                    HOWEVER, A COMPONENT OF GRADIENT IS LARGER THAN  0.20

 CYCLE:     8 TIME:   0.008 TIME LEFT:  2.00D  GRAD.:     0.494 HEAT:  22.95701    
 TEST ON GRADIENT SATISFIED
PETERS TEST SATISFIED

 -------------------------------------------------------------------------------
 BFGS PM7 MMOK PRECISE
 C6H6



     PETERS TEST WAS SATISFIED IN BFGS OPTIMIZATION           
     SCF FIELD WAS ACHIEVED                                   


                              PM7 CALCULATION
                                                       MOPAC2012 (Version: 14.208M)
                                                       Mon Mar 23 22:56:57 2015
                                                       No. of days left = 126




          FINAL HEAT OF FORMATION =         22.95680 KCAL/MOL =      96.05123 KJ/MOL


          TOTAL ENERGY            =       -817.56194 EV
          ELECTRONIC ENERGY       =      -3251.11700 EV  POINT GROUP:     D6h 
          CORE-CORE REPULSION     =       2433.55506 EV
          COSMO AREA              =        119.84 SQUARE ANGSTROMS
          COSMO VOLUME            =        108.45 CUBIC ANGSTROMS

          GRADIENT NORM           =          0.39584
          IONIZATION POTENTIAL    =          9.823610 EV
          HOMO LUMO ENERGIES (EV) =         -9.824  0.236
          NO. OF FILLED LEVELS    =         15
          MOLECULAR WEIGHT        =         78.113

          MOLECULAR DIMENSIONS (Angstroms)

            Atom       Atom       Distance
            H    10    H     7     4.96437
            H    11    H     9     4.29878
            H     7    H    11     0.00342


          SCF CALCULATIONS        =         18
 
          WALL-CLOCK TIME         =          0.047 SECONDS
          COMPUTATION TIME        =          0.092 SECONDS




   ATOM   CHEMICAL          X               Y               Z
  NUMBER   SYMBOL      (ANGSTROMS)     (ANGSTROMS)     (ANGSTROMS)
 
     1       C          0.16688001  *  -1.38431194  *   0.00030475  *
     2       C         -1.11496973  *  -0.83644906  *   0.00000686  *
     3       C         -1.28182004  *   0.54757966  *   0.00115066  *
     4       C         -0.16686970  *   1.38428601  *   0.00272739  *
     5       C          1.11498197  *   0.83644868  *   0.00102786  *
     6       C          1.28189457  *  -0.54759397  *  -0.00009806  *
     7       H          0.29710109  *  -2.46427110  *   0.00095690  *
     8       H         -1.98538828  *  -1.48909342  *  -0.00128003  *
     9       H         -2.28256167  *   0.97474081  *   0.00034740  *
    10       H         -0.29710833  *   2.46440437  *   0.00458649  *
    11       H          1.98534610  *   1.48900336  *   0.00016874  *
    12       H          2.28217311  *  -0.97466150  *  -0.00139586  *
                             CARTESIAN COORDINATES

   1    C        0.166880011    -1.384311936     0.000304746
   2    C       -1.114969728    -0.836449064     0.000006857
   3    C       -1.281820042     0.547579663     0.001150657
   4    C       -0.166869696     1.384286013     0.002727387
   5    C        1.114981969     0.836448676     0.001027857
   6    C        1.281894569    -0.547593972    -0.000098063
   7    H        0.297101087    -2.464271104     0.000956902
   8    H       -1.985388283    -1.489093422    -0.001280032
   9    H       -2.282561674     0.974740808     0.000347396
  10    H       -0.297108332     2.464404371     0.004586494
  11    H        1.985346099     1.489003359     0.000168738
  12    H        2.282173109    -0.974661499    -0.001395861


           Empirical Formula: C6 H6  =    12 atoms



      MOLECULAR POINT GROUP   :   D6h 


                  EIGENVALUES  
 -30.43934 -25.82746 -25.82546 -20.91342 -20.91254 -18.07127 -15.39343 -15.22164
 -14.26030 -14.25739 -13.42616 -11.93940 -11.93751  -9.82428  -9.82361   0.23596
   0.23609   2.57951   4.42372   4.42435   5.04611   5.33742   5.33875   5.52247
   5.83291   6.11526   6.11563   6.19440   6.19449   6.41095


              NET ATOMIC CHARGES AND DIPOLE CONTRIBUTIONS

  ATOM NO.   TYPE          CHARGE      No. of ELECS.   s-Pop       p-Pop       
    1          C          -0.148035        4.1480     1.08352     3.06452
    2          C          -0.148097        4.1481     1.08352     3.06458
    3          C          -0.148093        4.1481     1.08354     3.06455
    4          C          -0.148054        4.1481     1.08353     3.06453
    5          C          -0.148073        4.1481     1.08350     3.06457
    6          C          -0.148084        4.1481     1.08349     3.06460
    7          H           0.148088        0.8519     0.85191
    8          H           0.148063        0.8519     0.85194
    9          H           0.148090        0.8519     0.85191
   10          H           0.148112        0.8519     0.85189
   11          H           0.148050        0.8519     0.85195
   12          H           0.148033        0.8520     0.85197
 DIPOLE           X         Y         Z       TOTAL
 POINT-CHG.    -0.001     0.001    -0.001     0.002
 HYBRID         0.000    -0.000    -0.000     0.000
 SUM           -0.001     0.000    -0.001     0.002


          ATOMIC ORBITAL ELECTRON POPULATIONS

    Atom      s        px        py        pz   
    1  C   1.08352   0.98979   1.07475   0.99998
    2  C   1.08352   1.04456   1.02001   1.00002
    3  C   1.08354   1.06257   1.00199   0.99999
    4  C   1.08353   0.98979   1.07476   0.99998
    5  C   1.08350   1.04455   1.02001   1.00001
    6  C   1.08349   1.06257   1.00200   1.00003
    7  H   0.85191
    8  H   0.85194
    9  H   0.85191
   10  H   0.85189
   11  H   0.85195
   12  H   0.85197



 TOTAL JOB TIME:             0.05 SECONDS

 == MOPAC DONE ==
