 *******************************************************************************
 ** Site#: 6541         For non-commercial use only     Version 14.208M 64BITS**
 *******************************************************************************
 ** Cite this work as:                                                        **
 **                                                                           **
 ** (a) MOPAC2012, James J. P. Stewart, Stewart Computational Chemistry,      **
 **  Version 14.208M web: HTTP://OpenMOPAC.net         Days remaining: 126    **
 **                                                                           **
 **                                 AND                                       **
 **                                                                           **
 ** (b) Maia, J.D.C., et al., J. Chem. Theory Comput. 2012, 8, 3072-3081.     **
 **                DOI: 10.1021/ct3004645.                                    **
 *******************************************************************************
 **                                                                           **
 **                                MOPAC2012                                  **
 **                                                                           **
 *******************************************************************************

                            PM7 CALCULATION RESULTS


 *******************************************************************************
 *  CALCULATION DONE:                                Mon Mar 23 22:56:58 2015  *
 *  PM7        - The PM7 Hamiltonian to be used
 *  MMOK       - APPLY MM CORRECTION TO CONH BARRIER
 *  PRECISE    - CRITERIA TO BE INCREASED BY 100 TIMES
 *  BFGS       - USE THE BFGS GEOMETRY OPTIMIZER
 *  T=         - A TIME OF 172800.0 SECONDS REQUESTED
 *  DUMP=N     - RESTART FILE WRITTEN EVERY  7200.000 SECONDS
 *******************************************************************************
 BFGS PM7 MMOK PRECISE
 CH4N2O

   ATOM   CHEMICAL          X               Y               Z
  NUMBER   SYMBOL      (ANGSTROMS)     (ANGSTROMS)     (ANGSTROMS)
 
     1       N          1.16720000  *  -0.62190000  *  -0.00030000  *
     2       C          0.00000000  *   0.05200000  *  -0.00010000  *
     3       O          0.00000000  *   1.26790000  *   0.00010000  *
     4       N         -1.16720000  *  -0.62190000  *  -0.00010000  *
     5       H          2.00720000  *  -0.13690000  *  -0.00030000  *
     6       H          1.16720000  *  -1.59190000  *   0.00360000  *
     7       H         -1.16720000  *  -1.59190000  *  -0.00020000  *
     8       H         -2.00720000  *  -0.13690000  *   0.00010000  *
 


          CARTESIAN COORDINATES 

    NO.       ATOM         X         Y         Z

     1         N        1.1672   -0.6219   -0.0003
     2         C        0.0000    0.0520   -0.0001
     3         O        0.0000    1.2679    0.0001
     4         N       -1.1672   -0.6219   -0.0001
     5         H        2.0072   -0.1369   -0.0003
     6         H        1.1672   -1.5919    0.0036
     7         H       -1.1672   -1.5919   -0.0002
     8         H       -2.0072   -0.1369    0.0001

     ===================== shared-memory parallel CPU Section ======================
     **                                                                           **
     **  MOPAC calculations will run in shared-memory parallel CPUs               **
     **                                                                           **
     **  Number of Threads =  2                                                   **
     **                                                                           **
     **                                                                           **
     **  For information on this work, see:                                       **
     **                                                                           **
     **  Maia, J.D.C., et al., J. Chem. Theory Comput. 2012, 8, 3072-3081.        **
     **        DOI: 10.1021/ct3004645.                                            **
     **                                                                           **
     ===================== shared-memory parallel CPU Section ======================
      


 General Reference for PM7:
 "Optimization of Parameters for Semiempirical Methods VI: More Modifications to the 
 NDDO Approximations and Re-optimization of Parameters", J. J. P. Stewart, J. Mol. Mod., 1:32, 19 (2013)
 http://www.springerlink.com/openurl.asp?genre=article&id=doi:10.1007/s00894-012-1667-x

           Empirical Formula: C H4 N2 O  =     8 atoms



      MOLECULAR POINT GROUP   :   C2v 


      RHF CALCULATION, NO. OF DOUBLY OCCUPIED LEVELS =   12

      Geometry optimization using BFGS
 CYCLE:     1 TIME:   0.008 TIME LEFT:  2.00D  GRAD.:    53.275 HEAT: -49.84278    
 CYCLE:     2 TIME:   0.000 TIME LEFT:  2.00D  GRAD.:    35.214 HEAT: -50.70887    
 CYCLE:     3 TIME:   0.000 TIME LEFT:  2.00D  GRAD.:    17.378 HEAT: -50.96855    
 CYCLE:     4 TIME:   0.008 TIME LEFT:  2.00D  GRAD.:     9.497 HEAT: -51.05309    
 CYCLE:     5 TIME:   0.000 TIME LEFT:  2.00D  GRAD.:     4.792 HEAT: -51.07657    
 CYCLE:     6 TIME:   0.000 TIME LEFT:  2.00D  GRAD.:     3.984 HEAT: -51.08502    
 CYCLE:     7 TIME:   0.008 TIME LEFT:  2.00D  GRAD.:     3.095 HEAT: -51.10063    
 CYCLE:     8 TIME:   0.000 TIME LEFT:  2.00D  GRAD.:     4.877 HEAT: -51.12555    
 CYCLE:     9 TIME:   0.008 TIME LEFT:  2.00D  GRAD.:     5.628 HEAT: -51.15205    
 CYCLE:    10 TIME:   0.000 TIME LEFT:  2.00D  GRAD.:     4.698 HEAT: -51.17346    
 CYCLE:    11 TIME:   0.000 TIME LEFT:  2.00D  GRAD.:     2.981 HEAT: -51.19946    
 CYCLE:    12 TIME:   0.008 TIME LEFT:  2.00D  GRAD.:     3.522 HEAT: -51.22558    
 CYCLE:    13 TIME:   0.000 TIME LEFT:  2.00D  GRAD.:     4.192 HEAT: -51.23940    
 CYCLE:    14 TIME:   0.000 TIME LEFT:  2.00D  GRAD.:     2.665 HEAT: -51.25487    
 CYCLE:    15 TIME:   0.008 TIME LEFT:  2.00D  GRAD.:     1.548 HEAT: -51.26211    
 CYCLE:    16 TIME:   0.000 TIME LEFT:  2.00D  GRAD.:     1.236 HEAT: -51.26740    
 CYCLE:    17 TIME:   0.000 TIME LEFT:  2.00D  GRAD.:     1.177 HEAT: -51.26947    
 TEST ON GRADIENT SATISFIED
                    HOWEVER, A COMPONENT OF GRADIENT IS LARGER THAN  0.20

 CYCLE:    18 TIME:   0.000 TIME LEFT:  2.00D  GRAD.:     0.891 HEAT: -51.27109    
 TEST ON GRADIENT SATISFIED
                    HOWEVER, A COMPONENT OF GRADIENT IS LARGER THAN  0.20

 CYCLE:    19 TIME:   0.008 TIME LEFT:  2.00D  GRAD.:     0.553 HEAT: -51.27235    
 TEST ON GRADIENT SATISFIED
PETERS TEST SATISFIED

 -------------------------------------------------------------------------------
 BFGS PM7 MMOK PRECISE
 CH4N2O



     PETERS TEST WAS SATISFIED IN BFGS OPTIMIZATION           
     SCF FIELD WAS ACHIEVED                                   


                              PM7 CALCULATION
                                                       MOPAC2012 (Version: 14.208M)
                                                       Mon Mar 23 22:56:58 2015
                                                       No. of days left = 126




          FINAL HEAT OF FORMATION =        -51.27263 KCAL/MOL =    -214.52470 KJ/MOL


          TOTAL ENERGY            =       -845.31592 EV
          ELECTRONIC ENERGY       =      -2436.74727 EV  POINT GROUP:     C2  
          CORE-CORE REPULSION     =       1591.43135 EV
          COSMO AREA              =         90.24 SQUARE ANGSTROMS
          COSMO VOLUME            =         71.64 CUBIC ANGSTROMS

          GRADIENT NORM           =          0.15693
          IONIZATION POTENTIAL    =         10.434515 EV
          HOMO LUMO ENERGIES (EV) =        -10.435  1.475
          NO. OF FILLED LEVELS    =         12
          MOLECULAR WEIGHT        =         60.055

          MOLECULAR DIMENSIONS (Angstroms)

            Atom       Atom       Distance
            H     8    H     5     4.09110
            O     3    H     6     2.92906
            N     4    H     7     0.31873


          SCF CALCULATIONS        =         26
 
          WALL-CLOCK TIME         =          0.078 SECONDS
          COMPUTATION TIME        =          0.112 SECONDS




   ATOM   CHEMICAL          X               Y               Z
  NUMBER   SYMBOL      (ANGSTROMS)     (ANGSTROMS)     (ANGSTROMS)
 
     1       N          1.17685747  *  -0.64455579  *  -0.03837620  *
     2       C         -0.00595702  *   0.08731975  *   0.00660162  *
     3       O         -0.01108306  *   1.30236821  *  -0.03750293  *
     4       N         -1.18736915  *  -0.65273403  *   0.11901269  *
     5       H          2.04214457  *  -0.14047166  *  -0.00498472  *
     6       H          1.21602049  *  -1.61857433  *   0.15312696  *
     7       H         -1.22653281  *  -1.61488171  *  -0.13491030  *
     8       H         -2.04887607  *  -0.14512613  *   0.02071592  *
                             CARTESIAN COORDINATES

   1    N        1.176857472    -0.644555788    -0.038376203
   2    C       -0.005957015     0.087319746     0.006601621
   3    O       -0.011083063     1.302368211    -0.037502935
   4    N       -1.187369148    -0.652734035     0.119012695
   5    H        2.042144569    -0.140471662    -0.004984717
   6    H        1.216020487    -1.618574331     0.153126965
   7    H       -1.226532806    -1.614881709    -0.134910300
   8    H       -2.048876072    -0.145126127     0.020715924


           Empirical Formula: C H4 N2 O  =     8 atoms



      MOLECULAR POINT GROUP   :   C2  


                  EIGENVALUES  
 -38.04426 -35.84982 -30.01981 -21.93117 -18.75061 -18.37738 -16.00030 -15.03001
 -14.51114 -11.12148 -10.53051 -10.43451   1.47516   1.76792   3.10580   4.76609
   5.41996   5.65939   6.57567   6.70957


              NET ATOMIC CHARGES AND DIPOLE CONTRIBUTIONS

  ATOM NO.   TYPE          CHARGE      No. of ELECS.   s-Pop       p-Pop       
    1          N          -0.711056        5.7111     1.54444     4.16661
    2          C           0.723732        3.2763     1.02944     2.24683
    3          O          -0.544274        6.5443     1.88310     4.66117
    4          N          -0.703645        5.7036     1.56014     4.14351
    5          H           0.321244        0.6788     0.67876
    6          H           0.302082        0.6979     0.69792
    7          H           0.296130        0.7039     0.70387
    8          H           0.315787        0.6842     0.68421
 DIPOLE           X         Y         Z       TOTAL
 POINT-CHG.     0.065    -3.776    -0.096     3.778
 HYBRID         0.016    -0.332    -0.143     0.361
 SUM            0.081    -4.108    -0.239     4.115


          ATOMIC ORBITAL ELECTRON POPULATIONS

    Atom      s        px        py        pz   
    1  N   1.54444   1.17559   1.19617   1.79486
    2  C   1.02944   0.74481   0.77426   0.72776
    3  O   1.88310   1.84776   1.20905   1.60436
    4  N   1.56014   1.17465   1.19552   1.77334
    5  H   0.67876
    6  H   0.69792
    7  H   0.70387
    8  H   0.68421



 TOTAL JOB TIME:             0.08 SECONDS

 == MOPAC DONE ==
