 *******************************************************************************
 ** Site#: 6541         For non-commercial use only     Version 14.208M 64BITS**
 *******************************************************************************
 ** Cite this work as:                                                        **
 **                                                                           **
 ** (a) MOPAC2012, James J. P. Stewart, Stewart Computational Chemistry,      **
 **  Version 14.208M web: HTTP://OpenMOPAC.net         Days remaining: 126    **
 **                                                                           **
 **                                 AND                                       **
 **                                                                           **
 ** (b) Maia, J.D.C., et al., J. Chem. Theory Comput. 2012, 8, 3072-3081.     **
 **                DOI: 10.1021/ct3004645.                                    **
 *******************************************************************************
 **                                                                           **
 **                                MOPAC2012                                  **
 **                                                                           **
 *******************************************************************************

                            PM7 CALCULATION RESULTS


 *******************************************************************************
 *  CALCULATION DONE:                                Mon Mar 23 22:56:58 2015  *
 *  PM7        - The PM7 Hamiltonian to be used
 *  MMOK       - APPLY MM CORRECTION TO CONH BARRIER
 *  PRECISE    - CRITERIA TO BE INCREASED BY 100 TIMES
 *  BFGS       - USE THE BFGS GEOMETRY OPTIMIZER
 *  T=         - A TIME OF 172800.0 SECONDS REQUESTED
 *  DUMP=N     - RESTART FILE WRITTEN EVERY  7200.000 SECONDS
 *******************************************************************************
 BFGS PM7 MMOK PRECISE
 H2O

   ATOM   CHEMICAL          X               Y               Z
  NUMBER   SYMBOL      (ANGSTROMS)     (ANGSTROMS)     (ANGSTROMS)
 
     1       O          0.00000000  *  -0.05890000  *   0.00000000  *
     2       H         -0.81100000  *   0.46770000  *   0.00000000  *
     3       H          0.81100000  *   0.46770000  *   0.00000000  *
 


          CARTESIAN COORDINATES 

    NO.       ATOM         X         Y         Z

     1         O        0.0000   -0.0589    0.0000
     2         H       -0.8110    0.4677    0.0000
     3         H        0.8110    0.4677    0.0000

     ===================== shared-memory parallel CPU Section ======================
     **                                                                           **
     **  MOPAC calculations will run in shared-memory parallel CPUs               **
     **                                                                           **
     **  Number of Threads =  2                                                   **
     **                                                                           **
     **                                                                           **
     **  For information on this work, see:                                       **
     **                                                                           **
     **  Maia, J.D.C., et al., J. Chem. Theory Comput. 2012, 8, 3072-3081.        **
     **        DOI: 10.1021/ct3004645.                                            **
     **                                                                           **
     ===================== shared-memory parallel CPU Section ======================
      


 General Reference for PM7:
 "Optimization of Parameters for Semiempirical Methods VI: More Modifications to the 
 NDDO Approximations and Re-optimization of Parameters", J. J. P. Stewart, J. Mol. Mod., 1:32, 19 (2013)
 http://www.springerlink.com/openurl.asp?genre=article&id=doi:10.1007/s00894-012-1667-x

           Empirical Formula: H2 O  =     3 atoms



      MOLECULAR POINT GROUP   :   C2v 


      RHF CALCULATION, NO. OF DOUBLY OCCUPIED LEVELS =    4

      Geometry optimization using BFGS
 CYCLE:     1 TIME:   0.000 TIME LEFT:  2.00D  GRAD.:    16.164 HEAT: -57.50798    
 CYCLE:     2 TIME:   0.000 TIME LEFT:  2.00D  GRAD.:    22.632 HEAT: -57.55648    
 CYCLE:     3 TIME:   0.000 TIME LEFT:  2.00D  GRAD.:    10.487 HEAT: -57.73468    
 CYCLE:     4 TIME:   0.000 TIME LEFT:  2.00D  GRAD.:     1.411 HEAT: -57.79848    
 TEST ON GRADIENT SATISFIED
PETERS TEST SATISFIED

 -------------------------------------------------------------------------------
 BFGS PM7 MMOK PRECISE
 H2O



     PETERS TEST WAS SATISFIED IN BFGS OPTIMIZATION           
     SCF FIELD WAS ACHIEVED                                   


                              PM7 CALCULATION
                                                       MOPAC2012 (Version: 14.208M)
                                                       Mon Mar 23 22:56:58 2015
                                                       No. of days left = 126




          FINAL HEAT OF FORMATION =        -57.79967 KCAL/MOL =    -241.83384 KJ/MOL


          TOTAL ENERGY            =       -322.67921 EV
          ELECTRONIC ENERGY       =       -469.18692 EV  POINT GROUP:     C2v 
          CORE-CORE REPULSION     =        146.50771 EV
          COSMO AREA              =         42.43 SQUARE ANGSTROMS
          COSMO VOLUME            =         25.18 CUBIC ANGSTROMS

          GRADIENT NORM           =          0.06291
          IONIZATION POTENTIAL    =         12.115131 EV
          HOMO LUMO ENERGIES (EV) =        -12.115  4.048
          NO. OF FILLED LEVELS    =          4
          MOLECULAR WEIGHT        =         18.015

          MOLECULAR DIMENSIONS (Angstroms)

            Atom       Atom       Distance
            H     3    H     2     1.51963
            H     2    O     1     0.57913
            O     1    H     2     0.00000


          SCF CALCULATIONS        =         10
 
          WALL-CLOCK TIME         =          0.031 SECONDS
          COMPUTATION TIME        =          0.014 SECONDS




   ATOM   CHEMICAL          X               Y               Z
  NUMBER   SYMBOL      (ANGSTROMS)     (ANGSTROMS)     (ANGSTROMS)
 
     1       O          0.02314249  *  -0.08516235  *  -0.00999791  *
     2       H         -0.73787824  *   0.49235455  *  -0.01000145  *
     3       H          0.78174950  *   0.49556829  *  -0.01000068  *
                             CARTESIAN COORDINATES

   1    O        0.023142489    -0.085162346    -0.009997905
   2    H       -0.737878245     0.492354553    -0.010001448
   3    H        0.781749503     0.495568289    -0.010000681


           Empirical Formula: H2 O  =     3 atoms



      MOLECULAR POINT GROUP   :   C2v 


                  EIGENVALUES  
 -29.61421 -17.83839 -14.21631 -12.11513   4.04846   6.35024


              NET ATOMIC CHARGES AND DIPOLE CONTRIBUTIONS

  ATOM NO.   TYPE          CHARGE      No. of ELECS.   s-Pop       p-Pop       
    1          O          -0.649337        6.6493     1.81335     4.83599
    2          H           0.324666        0.6753     0.67533
    3          H           0.324671        0.6753     0.67533
 DIPOLE           X         Y         Z       TOTAL
 POINT-CHG.    -0.004     1.806    -0.000     1.806
 HYBRID        -0.001     0.323    -0.000     0.323
 SUM           -0.004     2.129    -0.000     2.129


          ATOMIC ORBITAL ELECTRON POPULATIONS

    Atom      s        px        py        pz   
    1  O   1.81335   1.35060   1.48539   2.00000
    2  H   0.67533
    3  H   0.67533



 TOTAL JOB TIME:             0.03 SECONDS

 == MOPAC DONE ==
