 *******************************************************************************
 ** Site#: 6541         For non-commercial use only     Version 14.208M 64BITS**
 *******************************************************************************
 ** Cite this work as:                                                        **
 **                                                                           **
 ** (a) MOPAC2012, James J. P. Stewart, Stewart Computational Chemistry,      **
 **  Version 14.208M web: HTTP://OpenMOPAC.net         Days remaining: 172    **
 **                                                                           **
 **                                 AND                                       **
 **                                                                           **
 ** (b) Maia, J.D.C., et al., J. Chem. Theory Comput. 2012, 8, 3072-3081.     **
 **                DOI: 10.1021/ct3004645.                                    **
 *******************************************************************************
 **                                                                           **
 **                                MOPAC2012                                  **
 **                                                                           **
 *******************************************************************************

                            PM7 CALCULATION RESULTS


 *******************************************************************************
 *  CALCULATION DONE:                                Thu Feb  5 17:21:59 2015  *
 *  PM7        - The PM7 Hamiltonian to be used
 *  MMOK       - APPLY MM CORRECTION TO CONH BARRIER
 *  PRECISE    - CRITERIA TO BE INCREASED BY 100 TIMES
 *  BFGS       - USE THE BFGS GEOMETRY OPTIMIZER
 *  T=         - A TIME OF 172800.0 SECONDS REQUESTED
 *  DUMP=N     - RESTART FILE WRITTEN EVERY  7200.000 SECONDS
 *******************************************************************************
 BFGS PM7 PRECISE MMOK
 /Users/ghutchis/Desktop/esters/ethylnonanoate.pdb

  ATOM    CHEMICAL      BOND LENGTH      BOND ANGLE     TWIST ANGLE 
 NUMBER    SYMBOL       (ANGSTROMS)      (DEGREES)       (DEGREES) 
   (I)                     NA:I           NB:NA:I       NC:NB:NA:I       NA    NB    NC 
     1       C          0.00000000  *    0.0000000  *    0.0000000  *     0     0     0
     2       O          1.35786200  *    0.0000000  *    0.0000000  *     1     0     0
     3       C          1.37919900  *  123.7812540  *    0.0000000  *     2     1     0
     4       C          1.52103200  *  109.3483640  *  179.7510040  *     3     2     1
     5       H          1.11229100  *  109.8593930  *   60.0460210  *     3     2     1
     6       H          1.11245900  *  109.9029330  *  -60.3603140  *     3     2     1
     7       O          1.22374700  *  120.7568490  *    0.3336110  *     1     2     3
     8       H          1.11077900  *  110.0671250  *  -60.0991620  *     4     3     2
     9       H          1.11062900  *  109.8535860  *  179.9855680  *     4     3     2
    10       H          1.11103600  *  110.0608400  *   60.0375170  *     4     3     2
    11       C          1.50425700  *  118.3872680  * -179.0889400  *     1     2     3
    12       C          1.53792100  *  114.2677160  *  179.1900080  *    11     1     2
    13       H          1.11155800  *  107.5103200  *   58.1002440  *    11     1     2
    14       H          1.11051600  *  108.1594320  *  -59.0523270  *    11     1     2
    15       C          1.53226000  *  109.5244410  * -178.0485430  *    12    11     1
    16       H          1.11263600  *  109.8157640  *   61.1506910  *    12    11     1
    17       H          1.11321700  *  109.4006050  *  -58.4006390  *    12    11     1
    18       C          1.53308700  *  112.8381980  *  179.1735510  *    15    12    11
    19       H          1.11317600  *  108.3113470  *   58.7943050  *    15    12    11
    20       H          1.11277900  *  109.2715820  *  -59.4019800  *    15    12    11
    21       C          1.53435500  *  109.3108680  * -176.7734680  *    18    15    12
    22       H          1.11300900  *  109.6796350  *   62.3244530  *    18    15    12
    23       H          1.11185400  *  109.6376020  *  -57.1772270  *    18    15    12
    24       C          1.53194400  *  112.6448480  *  179.9670010  *    21    18    15
    25       H          1.11298000  *  108.4409870  *   59.5791130  *    21    18    15
    26       H          1.11190300  *  109.4087260  *  -58.8016820  *    21    18    15
    27       C          1.53554200  *  109.8676600  * -177.1967620  *    24    21    18
    28       H          1.11181000  *  109.3973300  *   62.0720320  *    24    21    18
    29       H          1.11237100  *  109.6382710  *  -57.2344340  *    24    21    18
    30       C          1.52434400  *  111.7596810  * -179.2547960  *    27    24    21
    31       H          1.11223600  *  109.3124910  *   60.4258970  *    27    24    21
    32       H          1.11160800  *  109.7613710  *  -58.6431500  *    27    24    21
    33       H          1.11091200  *  110.4510500  *  -59.8128310  *    30    27    24
    34       H          1.11152000  *  109.2870850  * -179.2340590  *    30    27    24
    35       H          1.11015000  *  110.3003590  *   61.3324680  *    30    27    24
 


          CARTESIAN COORDINATES 

    NO.       ATOM         X         Y         Z

     1         C        0.0000    0.0000    0.0000
     2         O        1.3579    0.0000    0.0000
     3         C        2.1247    1.1463    0.0000
     4         C        3.5977    0.7672    0.0062
     5         H        1.9007    1.7508    0.9064
     6         H        1.9053    1.7487   -0.9091
     7         O       -0.6258    1.0516   -0.0061
     8         H        3.8339    0.1707    0.9130
     9         H        4.2234    1.6849    0.0060
    10         H        3.8402    0.1653   -0.8956
    11         C       -0.7152   -1.3232    0.0210
    12         C       -2.2490   -1.2125    0.0391
    13         H       -0.3814   -1.8694    0.9298
    14         H       -0.4023   -1.9000   -0.8749
    15         C       -2.8628   -2.6147    0.1088
    16         H       -2.6003   -0.6900   -0.8783
    17         H       -2.5671   -0.6289    0.9321
    18         C       -4.3952   -2.5920    0.1510
    19         H       -2.4879   -3.1152    1.0297
    20         H       -2.5336   -3.2041   -0.7758
    21         C       -4.9199   -4.0260    0.3010
    22         H       -4.7892   -2.1347   -0.7841
    23         H       -4.7361   -1.9864    1.0189
    24         C       -6.4496   -4.0920    0.3523
    25         H       -4.5120   -4.4534    1.2442
    26         H       -4.5619   -4.6417   -0.5529
    27         C       -6.9023   -5.5426    0.5727
    28         H       -6.8681   -3.7058   -0.6026
    29         H       -6.8231   -3.4619    1.1895
    30         C       -8.4215   -5.6607    0.6126
    31         H       -6.4912   -5.9138    1.5372
    32         H       -6.5173   -6.1853   -0.2485
    33         H       -8.8373   -5.0434    1.4374
    34         H       -8.7029   -6.7217    0.7872
    35         H       -8.8589   -5.3309   -0.3530

     ===================== shared-memory parallel CPU Section ======================
     **                                                                           **
     **  MOPAC calculations will run in shared-memory parallel CPUs               **
     **                                                                           **
     **  Number of Threads =  2                                                   **
     **                                                                           **
     **                                                                           **
     **  For information on this work, see:                                       **
     **                                                                           **
     **  Maia, J.D.C., et al., J. Chem. Theory Comput. 2012, 8, 3072-3081.        **
     **        DOI: 10.1021/ct3004645.                                            **
     **                                                                           **
     ===================== shared-memory parallel CPU Section ======================
      


 General Reference for PM7:
 "Optimization of Parameters for Semiempirical Methods VI: More Modifications to the 
 NDDO Approximations and Re-optimization of Parameters", J. J. P. Stewart, J. Mol. Mod., 1:32, 19 (2013)
 http://www.springerlink.com/openurl.asp?genre=article&id=doi:10.1007/s00894-012-1667-x

           Empirical Formula: C11 H22 O2  =    35 atoms



      MOLECULAR POINT GROUP   :   C1  


      RHF CALCULATION, NO. OF DOUBLY OCCUPIED LEVELS =   39

      Geometry optimization using BFGS
 CYCLE:     1 TIME:   0.027 TIME LEFT:  2.00D  GRAD.:    30.583 HEAT: -137.8567    
 CYCLE:     2 TIME:   0.020 TIME LEFT:  2.00D  GRAD.:    21.773 HEAT: -139.0581    
 CYCLE:     3 TIME:   0.012 TIME LEFT:  2.00D  GRAD.:    10.776 HEAT: -139.4005    
 CYCLE:     4 TIME:   0.012 TIME LEFT:  2.00D  GRAD.:     9.948 HEAT: -139.4745    
 CYCLE:     5 TIME:   0.016 TIME LEFT:  2.00D  GRAD.:     4.073 HEAT: -139.5614    
 CYCLE:     6 TIME:   0.012 TIME LEFT:  2.00D  GRAD.:     4.429 HEAT: -139.5666    
 TEST ON GRADIENT SATISFIED
                    HOWEVER, A COMPONENT OF GRADIENT IS LARGER THAN  0.20

 CYCLE:     7 TIME:   0.012 TIME LEFT:  2.00D  GRAD.:     1.657 HEAT: -139.5897    
 TEST ON GRADIENT SATISFIED
                    HOWEVER, A COMPONENT OF GRADIENT IS LARGER THAN  0.20

 CYCLE:     8 TIME:   0.016 TIME LEFT:  2.00D  GRAD.:     1.358 HEAT: -139.5914    
 TEST ON GRADIENT SATISFIED
PETERS TEST SATISFIED

 -------------------------------------------------------------------------------
 BFGS PM7 PRECISE MMOK
 /Users/ghutchis/Desktop/esters/ethylnonanoate.pdb



     PETERS TEST WAS SATISFIED IN BFGS OPTIMIZATION           
     SCF FIELD WAS ACHIEVED                                   


                              PM7 CALCULATION
                                                       MOPAC2012 (Version: 14.208M)
                                                       Thu Feb  5 17:21:59 2015
                                                       No. of days left = 172




          FINAL HEAT OF FORMATION =       -139.59372 KCAL/MOL =    -584.06012 KJ/MOL


          TOTAL ENERGY            =      -2240.29674 EV
          ELECTRONIC ENERGY       =     -12950.30197 EV  POINT GROUP:     C1  
          CORE-CORE REPULSION     =      10710.00523 EV
          COSMO AREA              =        271.37 SQUARE ANGSTROMS
          COSMO VOLUME            =        268.47 CUBIC ANGSTROMS

          GRADIENT NORM           =          0.51839
          IONIZATION POTENTIAL    =         10.731304 EV
          HOMO LUMO ENERGIES (EV) =        -10.731  1.193
          NO. OF FILLED LEVELS    =         39
          MOLECULAR WEIGHT        =        186.294

          MOLECULAR DIMENSIONS (Angstroms)

            Atom       Atom       Distance
            H    34    H     9    15.37146
            O     7    H     8     3.16940
            H     5    H    20     2.44273


          SCF CALCULATIONS        =         13
 
          WALL-CLOCK TIME         =          0.219 SECONDS
          COMPUTATION TIME        =          0.359 SECONDS




  ATOM    CHEMICAL      BOND LENGTH      BOND ANGLE     TWIST ANGLE 
 NUMBER    SYMBOL       (ANGSTROMS)      (DEGREES)       (DEGREES) 
   (I)                     NA:I           NB:NA:I       NC:NB:NA:I       NA    NB    NC 
     1       C         -0.01000020  *    0.0100001  *    0.0100003  *     0     0     0
     2       O          1.35692282  *    0.5729578  *  179.4270422  *     1     0     0
     3       C          1.43562644  *  116.3478737  *   -0.5729578  *     2     1     0
     4       C          1.51994971  *  104.1307904  *  179.9920918  *     3     2     1
     5       H          1.10418605  *  108.4391701  *   59.3715378  *     3     2     1
     6       H          1.10421103  *  108.4432172  *  -59.3717997  *     3     2     1
     7       O          1.20381109  *  122.1871276  *    0.3097581  *     1     2     3
     8       H          1.09801221  *  111.3042982  *  -59.6843243  *     4     3     2
     9       H          1.09573568  *  111.1463094  *  179.8434619  *     4     3     2
    10       H          1.09807644  *  111.2872220  *   59.3749197  *     4     3     2
    11       C          1.49810716  *  109.3661094  * -179.6919294  *     1     2     3
    12       C          1.53086776  *  110.1042023  *  179.7394137  *    11     1     2
    13       H          1.11116641  *  109.7910152  *   57.3601137  *    11     1     2
    14       H          1.11103317  *  109.8438212  *  -57.8363841  *    11     1     2
    15       C          1.53227745  *  110.6319677  * -179.1163340  *    12    11     1
    16       H          1.10852760  *  110.0366322  *   58.5197718  *    12    11     1
    17       H          1.10859857  *  110.0221871  *  -56.7703710  *    12    11     1
    18       C          1.53420662  *  110.4125127  *  179.7827720  *    15    12    11
    19       H          1.10626098  *  110.1894769  *   58.1455615  *    15    12    11
    20       H          1.10611614  *  110.2726254  *  -58.5186014  *    15    12    11
    21       C          1.53377588  *  110.6897760  * -177.9061896  *    18    15    12
    22       H          1.10630734  *  110.0751534  *   60.2689731  *    18    15    12
    23       H          1.10631749  *  110.1253765  *  -56.0558844  *    18    15    12
    24       C          1.53380263  *  110.7019839  * -179.5038118  *    21    18    15
    25       H          1.10589211  *  110.0430121  *   58.7249973  *    21    18    15
    26       H          1.10575643  *  110.1239453  *  -57.6660723  *    21    18    15
    27       C          1.53449482  *  110.7905649  * -178.0781309  *    24    21    18
    28       H          1.10597025  *  110.0532674  *   60.1104495  *    24    21    18
    29       H          1.10585520  *  110.1423724  *  -56.2129307  *    24    21    18
    30       C          1.52872195  *  110.8534316  * -178.9209799  *    27    24    21
    31       H          1.10631989  *  109.9839378  *   59.2471517  *    27    24    21
    32       H          1.10627761  *  110.0200810  *  -57.0271663  *    27    24    21
    33       H          1.09574412  *  111.4400827  *  -59.4682751  *    30    27    24
    34       H          1.09552007  *  111.2599058  * -179.4267276  *    30    27    24
    35       H          1.09573947  *  111.4366450  *   60.6146021  *    30    27    24
                             CARTESIAN COORDINATES

   1    C       -0.010000202     0.010000136     0.010000310
   2    O        1.346922613     0.010000136     0.010000310
   3    C        1.984082479     1.296487824     0.010000310
   4    C        3.469609633     0.974841829     0.010203752
   5    H        1.660859588     1.846309866     0.911360124
   6    H        1.660900069     1.846381205    -0.891361108
   7    O       -0.651253698     1.028786058     0.004492396
   8    H        3.750126100     0.385807300     0.893368314
   9    H        4.072205969     1.889995717     0.007430149
  10    H        3.749042193     0.381016447    -0.870171579
  11    C       -0.506777261    -1.403322139     0.017599601
  12    C       -2.037503974    -1.423011954     0.024243832
  13    H       -0.099527088    -1.940519611     0.900921152
  14    H       -0.106991577    -1.948359833    -0.864160012
  15    C       -2.558813020    -2.863572785     0.054169695
  16    H       -2.428088327    -0.887541373    -0.864321616
  17    H       -2.420647888    -0.853784990     0.894974669
  18    C       -4.092911065    -2.877329018     0.066165745
  19    H       -2.169822725    -3.391944743     0.944856497
  20    H       -2.183296743    -3.425313095    -0.821574712
  21    C       -4.621310292    -4.314854558     0.148524918
  22    H       -4.484227725    -2.381763102    -0.842240343
  23    H       -4.472224242    -2.285317494     0.920321625
  24    C       -6.155041711    -4.329629359     0.148129950
  25    H       -4.239070378    -4.807421519     1.061907530
  26    H       -4.237494165    -4.910481060    -0.700363495
  27    C       -6.685961895    -5.763439395     0.278463673
  28    H       -6.538495004    -3.868226375    -0.780977718
  29    H       -6.542073426    -3.707304907     0.976281178
  30    C       -8.214327748    -5.782369390     0.251440198
  31    H       -6.318986176    -6.218594007     1.217669080
  32    H       -6.285251696    -6.391486354    -0.539361793
  33    H       -8.636768194    -5.186120502     1.067948927
  34    H       -8.600840447    -6.802272672     0.354248079
  35    H       -8.603293285    -5.375854273    -0.688823732


           Empirical Formula: C11 H22 O2  =    35 atoms



      MOLECULAR POINT GROUP   :   C1  


                  EIGENVALUES  
 -31.30669 -29.89616 -29.59357 -28.64844 -27.44386 -26.67418 -24.87472 -22.72260
 -21.35420 -20.64677 -20.30765 -19.75020 -19.35445 -17.19736 -17.12505 -16.70146
 -16.07896 -15.94260 -15.19346 -14.90248 -14.61007 -14.26228 -14.07389 -13.66329
 -13.53161 -13.43086 -12.91692 -12.64329 -12.61934 -12.47442 -12.39409 -12.13723
 -11.75993 -11.73457 -11.33041 -11.26478 -11.12704 -11.00834 -10.73130   1.19318
   1.70675   3.22628   3.67861   3.82662   3.99062   4.11681   4.36472   4.48669
   4.58427   4.82904   4.92698   4.96594   5.26133   5.27832   5.33084   5.44550
   5.56438   5.65685   5.81202   5.84469   5.86615   5.88170   6.00118   6.06052
   6.12724   6.24358   6.51339   6.53178   6.62941   6.63968   6.69234   6.73568
   6.75124   7.04165


              NET ATOMIC CHARGES AND DIPOLE CONTRIBUTIONS

  ATOM NO.   TYPE          CHARGE      No. of ELECS.   s-Pop       p-Pop       
    1          C           0.607339        3.3927     1.12202     2.27064
    2          O          -0.446646        6.4466     1.86704     4.57961
    3          C           0.010940        3.9891     1.08844     2.90062
    4          C          -0.462542        4.4625     1.05437     3.40817
    5          H           0.133296        0.8667     0.86670
    6          H           0.133505        0.8665     0.86650
    7          O          -0.514070        6.5141     1.87628     4.63779
    8          H           0.158961        0.8410     0.84104
    9          H           0.153790        0.8462     0.84621
   10          H           0.159098        0.8409     0.84090
   11          C          -0.351921        4.3519     1.06741     3.28451
   12          C          -0.253749        4.2537     1.05782     3.19593
   13          H           0.177190        0.8228     0.82281
   14          H           0.177117        0.8229     0.82288
   15          C          -0.269119        4.2691     1.05964     3.20948
   16          H           0.153129        0.8469     0.84687
   17          H           0.153614        0.8464     0.84639
   18          C          -0.269348        4.2693     1.05974     3.20961
   19          H           0.136999        0.8630     0.86300
   20          H           0.136808        0.8632     0.86319
   21          C          -0.277778        4.2778     1.06008     3.21770
   22          H           0.138847        0.8612     0.86115
   23          H           0.139313        0.8607     0.86069
   24          C          -0.272320        4.2723     1.06009     3.21223
   25          H           0.135866        0.8641     0.86413
   26          H           0.135619        0.8644     0.86438
   27          C          -0.251763        4.2518     1.05543     3.19633
   28          H           0.137308        0.8627     0.86269
   29          H           0.137480        0.8625     0.86252
   30          C          -0.439416        4.4394     1.05205     3.38737
   31          H           0.133371        0.8666     0.86663
   32          H           0.133399        0.8666     0.86660
   33          H           0.142773        0.8572     0.85723
   34          H           0.140273        0.8597     0.85973
   35          H           0.142637        0.8574     0.85736
 DIPOLE           X         Y         Z       TOTAL
 POINT-CHG.     1.092    -1.587     0.027     1.927
 HYBRID         0.118     0.035    -0.005     0.123
 SUM            1.210    -1.552     0.022     1.968


          ATOMIC ORBITAL ELECTRON POPULATIONS

    Atom      s        px        py        pz   
    1  C   1.12202   0.75083   0.86021   0.65961
    2  O   1.86704   1.32742   1.40418   1.84800
    3  C   1.08844   0.92610   0.83426   1.14026
    4  C   1.05437   1.04054   1.17131   1.19632
    5  H   0.86670
    6  H   0.86650
    7  O   1.87628   1.68237   1.43819   1.51723
    8  H   0.84104
    9  H   0.84621
   10  H   0.84090
   11  C   1.06741   1.05726   1.03306   1.19418
   12  C   1.05782   0.96416   1.04442   1.18735
   13  H   0.82281
   14  H   0.82288
   15  C   1.05964   1.01745   1.02891   1.16313
   16  H   0.84687
   17  H   0.84639
   18  C   1.05974   1.00523   1.03831   1.16608
   19  H   0.86300
   20  H   0.86319
   21  C   1.06008   1.01591   1.03932   1.16247
   22  H   0.86115
   23  H   0.86069
   24  C   1.06009   1.00771   1.04072   1.16380
   25  H   0.86413
   26  H   0.86438
   27  C   1.05543   1.00065   1.03789   1.15779
   28  H   0.86269
   29  H   0.86252
   30  C   1.05205   1.04276   1.17038   1.17423
   31  H   0.86663
   32  H   0.86660
   33  H   0.85723
   34  H   0.85973
   35  H   0.85736



 TOTAL JOB TIME:             0.22 SECONDS

 == MOPAC DONE ==
