 *******************************************************************************
 ** Site#: 6541         For non-commercial use only     Version 14.208M 64BITS**
 *******************************************************************************
 ** Cite this work as:                                                        **
 **                                                                           **
 ** (a) MOPAC2012, James J. P. Stewart, Stewart Computational Chemistry,      **
 **  Version 14.208M web: HTTP://OpenMOPAC.net         Days remaining: 126    **
 **                                                                           **
 **                                 AND                                       **
 **                                                                           **
 ** (b) Maia, J.D.C., et al., J. Chem. Theory Comput. 2012, 8, 3072-3081.     **
 **                DOI: 10.1021/ct3004645.                                    **
 *******************************************************************************
 **                                                                           **
 **                                MOPAC2012                                  **
 **                                                                           **
 *******************************************************************************

                            PM7 CALCULATION RESULTS


 *******************************************************************************
 *  CALCULATION DONE:                                Mon Mar 23 22:56:44 2015  *
 *  PM7        - The PM7 Hamiltonian to be used
 *  MMOK       - APPLY MM CORRECTION TO CONH BARRIER
 *  PRECISE    - CRITERIA TO BE INCREASED BY 100 TIMES
 *  BFGS       - USE THE BFGS GEOMETRY OPTIMIZER
 *  T=         - A TIME OF 172800.0 SECONDS REQUESTED
 *  DUMP=N     - RESTART FILE WRITTEN EVERY  7200.000 SECONDS
 *******************************************************************************
 BFGS PM7 MMOK PRECISE
 C20H14O4

   ATOM   CHEMICAL          X               Y               Z
  NUMBER   SYMBOL      (ANGSTROMS)     (ANGSTROMS)     (ANGSTROMS)
 
     1       C          0.02350000  *   1.65250000  *   1.80620000  *
     2       C          1.75630000  *  -1.35250000  *  -1.21050000  *
     3       C          1.80210000  *  -0.59940000  *   1.06380000  *
     4       C         -1.80830000  *  -1.28630000  *  -1.21650000  *
     5       C         -1.83340000  *  -0.53260000  *   1.05790000  *
     6       C          0.06880000  *   3.87110000  *   0.13600000  *
     7       C          0.04650000  *   2.93000000  *   2.34050000  *
     8       C          2.87380000  *  -2.13070000  *  -0.97810000  *
     9       C          2.91980000  *  -1.37590000  *   1.30130000  *
    10       C         -2.95420000  *  -2.02320000  *  -0.98780000  *
    11       C         -2.97940000  *  -1.26780000  *   1.29170000  *
    12       C          0.06900000  *   4.03370000  *   1.50580000  *
    13       H          5.39540000  *  -2.45540000  *   0.34350000  *
    14       H         -4.50410000  *  -3.64310000  *   0.79680000  *
    15       C          1.22090000  *  -0.58760000  *  -0.19070000  *
    16       C         -1.24840000  *  -0.54180000  *  -0.19490000  *
    17       C          3.45890000  *  -2.14420000  *   0.27970000  *
    18       C         -3.54320000  *  -2.01570000  *   0.26820000  *
    19       O          0.05440000  *   2.80050000  *  -2.78750000  *
    20       O          4.55810000  *  -2.90920000  *   0.51090000  *
    21       O         -4.67080000  *  -2.73940000  *   0.49560000  *
    22       C          0.03940000  *   2.09380000  *  -1.79970000  *
    23       C          0.02310000  *   1.47880000  *   0.44180000  *
    24       C          0.04580000  *   2.58630000  *  -0.41010000  *
    25       O          0.01410000  *   0.75070000  *  -1.81580000  *
    26       C          0.00200000  *   0.26070000  *  -0.44700000  *
    27       H          0.01040000  *   0.79330000  *   2.46040000  *
    28       H          1.30310000  *  -1.33820000  *  -2.19070000  *
    29       H          1.38180000  *  -0.00140000  *   1.85890000  *
    30       H         -1.34700000  *  -1.29540000  *  -2.19300000  *
    31       H         -1.39430000  *   0.05000000  *   1.85420000  *
    32       H          0.08680000  *   4.73490000  *  -0.51200000  *
    33       H          0.04640000  *   3.06540000  *   3.41190000  *
    34       H          3.29150000  *  -2.72820000  *  -1.77500000  *
    35       H          3.37360000  *  -1.38450000  *   2.28120000  *
    36       H         -3.39140000  *  -2.60430000  *  -1.78630000  *
    37       H         -3.43580000  *  -1.26060000  *   2.27050000  *
    38       H          0.08720000  *   5.02720000  *   1.92900000  *
 


          CARTESIAN COORDINATES 

    NO.       ATOM         X         Y         Z

     1         C        0.0235    1.6525    1.8062
     2         C        1.7563   -1.3525   -1.2105
     3         C        1.8021   -0.5994    1.0638
     4         C       -1.8083   -1.2863   -1.2165
     5         C       -1.8334   -0.5326    1.0579
     6         C        0.0688    3.8711    0.1360
     7         C        0.0465    2.9300    2.3405
     8         C        2.8738   -2.1307   -0.9781
     9         C        2.9198   -1.3759    1.3013
    10         C       -2.9542   -2.0232   -0.9878
    11         C       -2.9794   -1.2678    1.2917
    12         C        0.0690    4.0337    1.5058
    13         H        5.3954   -2.4554    0.3435
    14         H       -4.5041   -3.6431    0.7968
    15         C        1.2209   -0.5876   -0.1907
    16         C       -1.2484   -0.5418   -0.1949
    17         C        3.4589   -2.1442    0.2797
    18         C       -3.5432   -2.0157    0.2682
    19         O        0.0544    2.8005   -2.7875
    20         O        4.5581   -2.9092    0.5109
    21         O       -4.6708   -2.7394    0.4956
    22         C        0.0394    2.0938   -1.7997
    23         C        0.0231    1.4788    0.4418
    24         C        0.0458    2.5863   -0.4101
    25         O        0.0141    0.7507   -1.8158
    26         C        0.0020    0.2607   -0.4470
    27         H        0.0104    0.7933    2.4604
    28         H        1.3031   -1.3382   -2.1907
    29         H        1.3818   -0.0014    1.8589
    30         H       -1.3470   -1.2954   -2.1930
    31         H       -1.3943    0.0500    1.8542
    32         H        0.0868    4.7349   -0.5120
    33         H        0.0464    3.0654    3.4119
    34         H        3.2915   -2.7282   -1.7750
    35         H        3.3736   -1.3845    2.2812
    36         H       -3.3914   -2.6043   -1.7863
    37         H       -3.4358   -1.2606    2.2705
    38         H        0.0872    5.0272    1.9290

     ===================== shared-memory parallel CPU Section ======================
     **                                                                           **
     **  MOPAC calculations will run in shared-memory parallel CPUs               **
     **                                                                           **
     **  Number of Threads =  2                                                   **
     **                                                                           **
     **                                                                           **
     **  For information on this work, see:                                       **
     **                                                                           **
     **  Maia, J.D.C., et al., J. Chem. Theory Comput. 2012, 8, 3072-3081.        **
     **        DOI: 10.1021/ct3004645.                                            **
     **                                                                           **
     ===================== shared-memory parallel CPU Section ======================
      


 General Reference for PM7:
 "Optimization of Parameters for Semiempirical Methods VI: More Modifications to the 
 NDDO Approximations and Re-optimization of Parameters", J. J. P. Stewart, J. Mol. Mod., 1:32, 19 (2013)
 http://www.springerlink.com/openurl.asp?genre=article&id=doi:10.1007/s00894-012-1667-x

           Empirical Formula: C20 H14 O4  =    38 atoms



      MOLECULAR POINT GROUP   :   C1  


      RHF CALCULATION, NO. OF DOUBLY OCCUPIED LEVELS =   59

      Geometry optimization using BFGS
 CYCLE:     1 TIME:   0.062 TIME LEFT:  2.00D  GRAD.:    76.234 HEAT: -69.65292    
 CYCLE:     2 TIME:   0.039 TIME LEFT:  2.00D  GRAD.:    67.173 HEAT: -70.31162    
 CYCLE:     3 TIME:   0.031 TIME LEFT:  2.00D  GRAD.:    52.284 HEAT: -70.90954    
 CYCLE:     4 TIME:   0.047 TIME LEFT:  2.00D  GRAD.:    44.265 HEAT: -71.42717    
 CYCLE:     5 TIME:   0.031 TIME LEFT:  2.00D  GRAD.:    39.649 HEAT: -72.13470    
 CYCLE:     6 TIME:   0.031 TIME LEFT:  2.00D  GRAD.:    40.331 HEAT: -72.55930    
 CYCLE:     7 TIME:   0.047 TIME LEFT:  2.00D  GRAD.:    39.751 HEAT: -73.05152    
 CYCLE:     8 TIME:   0.023 TIME LEFT:  2.00D  GRAD.:    37.799 HEAT: -73.57702    
 CYCLE:     9 TIME:   0.047 TIME LEFT:  2.00D  GRAD.:    31.397 HEAT: -74.05649    
 CYCLE:    10 TIME:   0.031 TIME LEFT:  2.00D  GRAD.:    32.974 HEAT: -74.57066    
 CYCLE:    11 TIME:   0.031 TIME LEFT:  2.00D  GRAD.:    33.679 HEAT: -74.91214    
 CYCLE:    12 TIME:   0.031 TIME LEFT:  2.00D  GRAD.:    41.475 HEAT: -75.29694    
 CYCLE:    13 TIME:   0.039 TIME LEFT:  2.00D  GRAD.:    33.606 HEAT: -75.67859    
 CYCLE:    14 TIME:   0.031 TIME LEFT:  2.00D  GRAD.:    30.240 HEAT: -76.08008    
 CYCLE:    15 TIME:   0.039 TIME LEFT:  2.00D  GRAD.:    27.460 HEAT: -76.36027    
 CYCLE:    16 TIME:   0.031 TIME LEFT:  2.00D  GRAD.:    47.023 HEAT: -76.41564    
 CYCLE:    17 TIME:   0.023 TIME LEFT:  2.00D  GRAD.:    37.540 HEAT: -77.05134    
 CYCLE:    18 TIME:   0.023 TIME LEFT:  2.00D  GRAD.:    41.280 HEAT: -77.17241    
 CYCLE:    19 TIME:   0.039 TIME LEFT:  2.00D  GRAD.:    28.916 HEAT: -77.59896    
 CYCLE:    20 TIME:   0.031 TIME LEFT:  2.00D  GRAD.:    34.224 HEAT: -77.86573    
 CYCLE:    21 TIME:   0.023 TIME LEFT:  2.00D  GRAD.:    40.783 HEAT: -77.89906    
 CYCLE:    22 TIME:   0.023 TIME LEFT:  2.00D  GRAD.:    31.903 HEAT: -78.59128    
 CYCLE:    23 TIME:   0.047 TIME LEFT:  2.00D  GRAD.:    21.842 HEAT: -78.93651    
 CYCLE:    24 TIME:   0.023 TIME LEFT:  2.00D  GRAD.:    17.906 HEAT: -79.46178    
 CYCLE:    25 TIME:   0.039 TIME LEFT:  2.00D  GRAD.:    34.642 HEAT: -80.21224    
 CYCLE:    26 TIME:   0.023 TIME LEFT:  2.00D  GRAD.:    34.390 HEAT: -80.80094    
 CYCLE:    27 TIME:   0.031 TIME LEFT:  2.00D  GRAD.:    35.718 HEAT: -81.56740    
 CYCLE:    28 TIME:   0.023 TIME LEFT:  2.00D  GRAD.:    41.934 HEAT: -81.91753    
 CYCLE:    29 TIME:   0.047 TIME LEFT:  2.00D  GRAD.:    34.368 HEAT: -82.30733    
 CYCLE:    30 TIME:   0.023 TIME LEFT:  2.00D  GRAD.:    27.553 HEAT: -82.65862    
 CYCLE:    31 TIME:   0.023 TIME LEFT:  2.00D  GRAD.:    41.543 HEAT: -82.72953    
 CYCLE:    32 TIME:   0.031 TIME LEFT:  2.00D  GRAD.:    19.940 HEAT: -83.17365    
 CYCLE:    33 TIME:   0.023 TIME LEFT:  2.00D  GRAD.:    22.330 HEAT: -83.28842    
 CYCLE:    34 TIME:   0.031 TIME LEFT:  2.00D  GRAD.:    17.925 HEAT: -83.56008    
 CYCLE:    35 TIME:   0.023 TIME LEFT:  2.00D  GRAD.:    15.214 HEAT: -83.79184    
 CYCLE:    36 TIME:   0.023 TIME LEFT:  2.00D  GRAD.:    14.083 HEAT: -83.98817    
 CYCLE:    37 TIME:   0.031 TIME LEFT:  2.00D  GRAD.:    17.776 HEAT: -84.19079    
 CYCLE:    38 TIME:   0.023 TIME LEFT:  2.00D  GRAD.:    19.195 HEAT: -84.37154    
 CYCLE:    39 TIME:   0.031 TIME LEFT:  2.00D  GRAD.:    16.698 HEAT: -84.59066    
 CYCLE:    40 TIME:   0.031 TIME LEFT:  2.00D  GRAD.:    21.782 HEAT: -84.82762    
 CYCLE:    41 TIME:   0.023 TIME LEFT:  2.00D  GRAD.:    12.885 HEAT: -85.03113    
 CYCLE:    42 TIME:   0.023 TIME LEFT:  2.00D  GRAD.:    12.187 HEAT: -85.17154    
 CYCLE:    43 TIME:   0.023 TIME LEFT:  2.00D  GRAD.:     8.355 HEAT: -85.32770    
 CYCLE:    44 TIME:   0.031 TIME LEFT:  2.00D  GRAD.:     6.977 HEAT: -85.43996    
 CYCLE:    45 TIME:   0.023 TIME LEFT:  2.00D  GRAD.:     6.756 HEAT: -85.50120    
 CYCLE:    46 TIME:   0.023 TIME LEFT:  2.00D  GRAD.:     5.613 HEAT: -85.53836    
 CYCLE:    47 TIME:   0.023 TIME LEFT:  2.00D  GRAD.:     5.695 HEAT: -85.56529    
 CYCLE:    48 TIME:   0.031 TIME LEFT:  2.00D  GRAD.:     4.845 HEAT: -85.59303    
 CYCLE:    49 TIME:   0.023 TIME LEFT:  2.00D  GRAD.:     4.249 HEAT: -85.62274    
 CYCLE:    50 TIME:   0.023 TIME LEFT:  2.00D  GRAD.:     4.169 HEAT: -85.64406    
 CYCLE:    51 TIME:   0.023 TIME LEFT:  2.00D  GRAD.:     3.952 HEAT: -85.66384    
 CYCLE:    52 TIME:   0.023 TIME LEFT:  2.00D  GRAD.:     3.927 HEAT: -85.68449    
 CYCLE:    53 TIME:   0.031 TIME LEFT:  2.00D  GRAD.:     3.880 HEAT: -85.70524    
 CYCLE:    54 TIME:   0.023 TIME LEFT:  2.00D  GRAD.:     3.713 HEAT: -85.72595    
 CYCLE:    55 TIME:   0.023 TIME LEFT:  2.00D  GRAD.:     3.230 HEAT: -85.74393    
 CYCLE:    56 TIME:   0.023 TIME LEFT:  2.00D  GRAD.:     2.803 HEAT: -85.75847    
 CYCLE:    57 TIME:   0.023 TIME LEFT:  2.00D  GRAD.:     2.423 HEAT: -85.76955    
 CYCLE:    58 TIME:   0.023 TIME LEFT:  2.00D  GRAD.:     2.274 HEAT: -85.77849    
 CYCLE:    59 TIME:   0.023 TIME LEFT:  2.00D  GRAD.:     2.161 HEAT: -85.78622    
 CYCLE:    60 TIME:   0.023 TIME LEFT:  2.00D  GRAD.:     2.310 HEAT: -85.79375    
 CYCLE:    61 TIME:   0.031 TIME LEFT:  2.00D  GRAD.:     2.516 HEAT: -85.80118    
 CYCLE:    62 TIME:   0.031 TIME LEFT:  2.00D  GRAD.:     2.565 HEAT: -85.80846    
 CYCLE:    63 TIME:   0.016 TIME LEFT:  2.00D  GRAD.:     2.251 HEAT: -85.81570    
 TEST ON GRADIENT SATISFIED
                    HOWEVER, A COMPONENT OF GRADIENT IS LARGER THAN  0.20

 CYCLE:    64 TIME:   0.023 TIME LEFT:  2.00D  GRAD.:     1.834 HEAT: -85.82254    
 TEST ON GRADIENT SATISFIED
                    HOWEVER, A COMPONENT OF GRADIENT IS LARGER THAN  0.20

 CYCLE:    65 TIME:   0.031 TIME LEFT:  2.00D  GRAD.:     1.790 HEAT: -85.82856    
 TEST ON GRADIENT SATISFIED
                    HOWEVER, A COMPONENT OF GRADIENT IS LARGER THAN  0.20

 CYCLE:    66 TIME:   0.031 TIME LEFT:  2.00D  GRAD.:     1.862 HEAT: -85.83325    
 TEST ON GRADIENT SATISFIED
                    HOWEVER, A COMPONENT OF GRADIENT IS LARGER THAN  0.20

 CYCLE:    67 TIME:   0.023 TIME LEFT:  2.00D  GRAD.:     1.979 HEAT: -85.83802    
 TEST ON GRADIENT SATISFIED
                    HOWEVER, A COMPONENT OF GRADIENT IS LARGER THAN  0.20

 CYCLE:    68 TIME:   0.016 TIME LEFT:  2.00D  GRAD.:     2.028 HEAT: -85.84383    
 CYCLE:    69 TIME:   0.031 TIME LEFT:  2.00D  GRAD.:     2.174 HEAT: -85.85101    
 CYCLE:    70 TIME:   0.031 TIME LEFT:  2.00D  GRAD.:     2.248 HEAT: -85.85846    
 CYCLE:    71 TIME:   0.023 TIME LEFT:  2.00D  GRAD.:     2.397 HEAT: -85.86626    
 CYCLE:    72 TIME:   0.023 TIME LEFT:  2.00D  GRAD.:     2.667 HEAT: -85.87472    
 CYCLE:    73 TIME:   0.023 TIME LEFT:  2.00D  GRAD.:     2.917 HEAT: -85.88569    
 CYCLE:    74 TIME:   0.031 TIME LEFT:  2.00D  GRAD.:     3.282 HEAT: -85.89970    
 CYCLE:    75 TIME:   0.023 TIME LEFT:  2.00D  GRAD.:     3.633 HEAT: -85.91558    
 CYCLE:    76 TIME:   0.016 TIME LEFT:  2.00D  GRAD.:     3.969 HEAT: -85.93402    
 CYCLE:    77 TIME:   0.039 TIME LEFT:  2.00D  GRAD.:     5.337 HEAT: -85.96166    
 CYCLE:    78 TIME:   0.031 TIME LEFT:  2.00D  GRAD.:     4.943 HEAT: -85.98286    
 CYCLE:    79 TIME:   0.039 TIME LEFT:  2.00D  GRAD.:     7.792 HEAT: -86.03002    
 CYCLE:    80 TIME:   0.031 TIME LEFT:  2.00D  GRAD.:     4.641 HEAT: -86.05654    
 CYCLE:    81 TIME:   0.039 TIME LEFT:  2.00D  GRAD.:     5.633 HEAT: -86.09919    
 CYCLE:    82 TIME:   0.031 TIME LEFT:  2.00D  GRAD.:     6.082 HEAT: -86.13565    
 CYCLE:    83 TIME:   0.039 TIME LEFT:  2.00D  GRAD.:     5.866 HEAT: -86.17342    
 CYCLE:    84 TIME:   0.039 TIME LEFT:  2.00D  GRAD.:     5.553 HEAT: -86.21560    
 CYCLE:    85 TIME:   0.023 TIME LEFT:  2.00D  GRAD.:     5.098 HEAT: -86.24818    
 CYCLE:    86 TIME:   0.031 TIME LEFT:  2.00D  GRAD.:     5.105 HEAT: -86.26993    
 CYCLE:    87 TIME:   0.031 TIME LEFT:  2.00D  GRAD.:     5.190 HEAT: -86.29657    
 CYCLE:    88 TIME:   0.023 TIME LEFT:  2.00D  GRAD.:     4.065 HEAT: -86.31885    
 CYCLE:    89 TIME:   0.023 TIME LEFT:  2.00D  GRAD.:     3.932 HEAT: -86.33618    
 CYCLE:    90 TIME:   0.031 TIME LEFT:  2.00D  GRAD.:     4.321 HEAT: -86.35563    
 CYCLE:    91 TIME:   0.031 TIME LEFT:  2.00D  GRAD.:     4.060 HEAT: -86.36745    
 CYCLE:    92 TIME:   0.031 TIME LEFT:  2.00D  GRAD.:     3.391 HEAT: -86.38593    
 CYCLE:    93 TIME:   0.039 TIME LEFT:  2.00D  GRAD.:     5.681 HEAT: -86.40602    
 CYCLE:    94 TIME:   0.031 TIME LEFT:  2.00D  GRAD.:     3.842 HEAT: -86.43221    
 CYCLE:    95 TIME:   0.047 TIME LEFT:  2.00D  GRAD.:     4.784 HEAT: -86.46109    
 CYCLE:    96 TIME:   0.031 TIME LEFT:  2.00D  GRAD.:     3.710 HEAT: -86.47676    
 CYCLE:    97 TIME:   0.047 TIME LEFT:  2.00D  GRAD.:     5.660 HEAT: -86.49700    
 CYCLE:    98 TIME:   0.023 TIME LEFT:  2.00D  GRAD.:     5.012 HEAT: -86.50964    
 CYCLE:    99 TIME:   0.023 TIME LEFT:  2.00D  GRAD.:     3.548 HEAT: -86.52304    
 CYCLE:   100 TIME:   0.031 TIME LEFT:  2.00D  GRAD.:     3.356 HEAT: -86.53869    
 CYCLE:   101 TIME:   0.023 TIME LEFT:  2.00D  GRAD.:     4.415 HEAT: -86.55204    
 CYCLE:   102 TIME:   0.023 TIME LEFT:  2.00D  GRAD.:     4.875 HEAT: -86.57683    
 CYCLE:   103 TIME:   0.047 TIME LEFT:  2.00D  GRAD.:     5.402 HEAT: -86.61811    
 CYCLE:   104 TIME:   0.023 TIME LEFT:  2.00D  GRAD.:     5.394 HEAT: -86.65901    
 CYCLE:   105 TIME:   0.031 TIME LEFT:  2.00D  GRAD.:     5.575 HEAT: -86.68394    
 CYCLE:   106 TIME:   0.023 TIME LEFT:  2.00D  GRAD.:     4.701 HEAT: -86.71038    
 CYCLE:   107 TIME:   0.031 TIME LEFT:  2.00D  GRAD.:     3.773 HEAT: -86.72881    
 CYCLE:   108 TIME:   0.031 TIME LEFT:  2.00D  GRAD.:     3.752 HEAT: -86.74796    
 CYCLE:   109 TIME:   0.023 TIME LEFT:  2.00D  GRAD.:     4.030 HEAT: -86.77290    
 CYCLE:   110 TIME:   0.023 TIME LEFT:  2.00D  GRAD.:     3.592 HEAT: -86.79791    
 CYCLE:   111 TIME:   0.031 TIME LEFT:  2.00D  GRAD.:     3.788 HEAT: -86.82549    
 CYCLE:   112 TIME:   0.023 TIME LEFT:  2.00D  GRAD.:     3.762 HEAT: -86.84383    
 CYCLE:   113 TIME:   0.031 TIME LEFT:  2.00D  GRAD.:     3.889 HEAT: -86.85734    
 CYCLE:   114 TIME:   0.039 TIME LEFT:  2.00D  GRAD.:     5.463 HEAT: -86.88400    
 CYCLE:   115 TIME:   0.031 TIME LEFT:  2.00D  GRAD.:     5.947 HEAT: -86.92131    
 CYCLE:   116 TIME:   0.023 TIME LEFT:  2.00D  GRAD.:     5.102 HEAT: -86.95528    
 CYCLE:   117 TIME:   0.031 TIME LEFT:  2.00D  GRAD.:     6.118 HEAT: -86.99073    
 CYCLE:   118 TIME:   0.023 TIME LEFT:  2.00D  GRAD.:     4.980 HEAT: -87.02356    
 CYCLE:   119 TIME:   0.039 TIME LEFT:  2.00D  GRAD.:     5.333 HEAT: -87.06855    
 CYCLE:   120 TIME:   0.023 TIME LEFT:  2.00D  GRAD.:     3.812 HEAT: -87.09254    
 CYCLE:   121 TIME:   0.031 TIME LEFT:  2.00D  GRAD.:     3.312 HEAT: -87.11026    
 CYCLE:   122 TIME:   0.031 TIME LEFT:  2.00D  GRAD.:     2.492 HEAT: -87.11927    
 CYCLE:   123 TIME:   0.023 TIME LEFT:  2.00D  GRAD.:     2.711 HEAT: -87.12556    
 CYCLE:   124 TIME:   0.031 TIME LEFT:  2.00D  GRAD.:     2.695 HEAT: -87.13073    
 CYCLE:   125 TIME:   0.023 TIME LEFT:  2.00D  GRAD.:     2.628 HEAT: -87.13884    
 CYCLE:   126 TIME:   0.039 TIME LEFT:  2.00D  GRAD.:     2.281 HEAT: -87.14815    
 CYCLE:   127 TIME:   0.016 TIME LEFT:  2.00D  GRAD.:     2.186 HEAT: -87.15451    
 TEST ON GRADIENT SATISFIED
                    HOWEVER, A COMPONENT OF GRADIENT IS LARGER THAN  0.20

 CYCLE:   128 TIME:   0.023 TIME LEFT:  2.00D  GRAD.:     1.660 HEAT: -87.15994    
 TEST ON GRADIENT SATISFIED
                    HOWEVER, A COMPONENT OF GRADIENT IS LARGER THAN  0.20

 CYCLE:   129 TIME:   0.031 TIME LEFT:  2.00D  GRAD.:     1.804 HEAT: -87.16408    
 TEST ON GRADIENT SATISFIED
                    HOWEVER, A COMPONENT OF GRADIENT IS LARGER THAN  0.20

 CYCLE:   130 TIME:   0.031 TIME LEFT:  2.00D  GRAD.:     1.466 HEAT: -87.16751    
 TEST ON GRADIENT SATISFIED
                    HOWEVER, A COMPONENT OF GRADIENT IS LARGER THAN  0.20

 CYCLE:   131 TIME:   0.023 TIME LEFT:  2.00D  GRAD.:     1.362 HEAT: -87.17077    
 TEST ON GRADIENT SATISFIED
                    HOWEVER, A COMPONENT OF GRADIENT IS LARGER THAN  0.20

 CYCLE:   132 TIME:   0.023 TIME LEFT:  2.00D  GRAD.:     1.189 HEAT: -87.17371    
 TEST ON GRADIENT SATISFIED
                    HOWEVER, A COMPONENT OF GRADIENT IS LARGER THAN  0.20

 CYCLE:   133 TIME:   0.039 TIME LEFT:  2.00D  GRAD.:     1.314 HEAT: -87.17617    
 TEST ON GRADIENT SATISFIED
                    HOWEVER, A COMPONENT OF GRADIENT IS LARGER THAN  0.20

 CYCLE:   134 TIME:   0.023 TIME LEFT:  2.00D  GRAD.:     1.290 HEAT: -87.17844    
 TEST ON GRADIENT SATISFIED
                    HOWEVER, A COMPONENT OF GRADIENT IS LARGER THAN  0.20

 CYCLE:   135 TIME:   0.023 TIME LEFT:  2.00D  GRAD.:     1.210 HEAT: -87.18065    
 TEST ON GRADIENT SATISFIED
                    HOWEVER, A COMPONENT OF GRADIENT IS LARGER THAN  0.20

 CYCLE:   136 TIME:   0.031 TIME LEFT:  2.00D  GRAD.:     1.071 HEAT: -87.18274    
 TEST ON GRADIENT SATISFIED
                    HOWEVER, A COMPONENT OF GRADIENT IS LARGER THAN  0.20

 CYCLE:   137 TIME:   0.031 TIME LEFT:  2.00D  GRAD.:     1.163 HEAT: -87.18442    
 TEST ON GRADIENT SATISFIED
                    HOWEVER, A COMPONENT OF GRADIENT IS LARGER THAN  0.20

 CYCLE:   138 TIME:   0.023 TIME LEFT:  2.00D  GRAD.:     1.043 HEAT: -87.18584    
 TEST ON GRADIENT SATISFIED
                    HOWEVER, A COMPONENT OF GRADIENT IS LARGER THAN  0.20

 CYCLE:   139 TIME:   0.031 TIME LEFT:  2.00D  GRAD.:     0.942 HEAT: -87.18708    
 TEST ON GRADIENT SATISFIED
                    HOWEVER, A COMPONENT OF GRADIENT IS LARGER THAN  0.20

 CYCLE:   140 TIME:   0.023 TIME LEFT:  2.00D  GRAD.:     0.897 HEAT: -87.18839    
 TEST ON GRADIENT SATISFIED
                    HOWEVER, A COMPONENT OF GRADIENT IS LARGER THAN  0.20

 CYCLE:   141 TIME:   0.031 TIME LEFT:  2.00D  GRAD.:     1.178 HEAT: -87.18987    
 TEST ON GRADIENT SATISFIED
                    HOWEVER, A COMPONENT OF GRADIENT IS LARGER THAN  0.20

 CYCLE:   142 TIME:   0.023 TIME LEFT:  2.00D  GRAD.:     1.401 HEAT: -87.19191    
 TEST ON GRADIENT SATISFIED
                    HOWEVER, A COMPONENT OF GRADIENT IS LARGER THAN  0.20

 CYCLE:   143 TIME:   0.023 TIME LEFT:  2.00D  GRAD.:     1.593 HEAT: -87.19453    
 TEST ON GRADIENT SATISFIED
                    HOWEVER, A COMPONENT OF GRADIENT IS LARGER THAN  0.20

 CYCLE:   144 TIME:   0.023 TIME LEFT:  2.00D  GRAD.:     1.369 HEAT: -87.19734    
 TEST ON GRADIENT SATISFIED
                    HOWEVER, A COMPONENT OF GRADIENT IS LARGER THAN  0.20

 CYCLE:   145 TIME:   0.031 TIME LEFT:  2.00D  GRAD.:     1.178 HEAT: -87.19950    
 TEST ON GRADIENT SATISFIED
                    HOWEVER, A COMPONENT OF GRADIENT IS LARGER THAN  0.20

 CYCLE:   146 TIME:   0.023 TIME LEFT:  2.00D  GRAD.:     1.078 HEAT: -87.20133    
 TEST ON GRADIENT SATISFIED
                    HOWEVER, A COMPONENT OF GRADIENT IS LARGER THAN  0.20

 CYCLE:   147 TIME:   0.023 TIME LEFT:  2.00D  GRAD.:     1.277 HEAT: -87.20327    
 TEST ON GRADIENT SATISFIED
                    HOWEVER, A COMPONENT OF GRADIENT IS LARGER THAN  0.20

 CYCLE:   148 TIME:   0.023 TIME LEFT:  2.00D  GRAD.:     1.519 HEAT: -87.20587    
 TEST ON GRADIENT SATISFIED
                    HOWEVER, A COMPONENT OF GRADIENT IS LARGER THAN  0.20

 CYCLE:   149 TIME:   0.031 TIME LEFT:  2.00D  GRAD.:     1.455 HEAT: -87.20873    
 TEST ON GRADIENT SATISFIED
                    HOWEVER, A COMPONENT OF GRADIENT IS LARGER THAN  0.20

 CYCLE:   150 TIME:   0.023 TIME LEFT:  2.00D  GRAD.:     1.324 HEAT: -87.21152    
 TEST ON GRADIENT SATISFIED
                    HOWEVER, A COMPONENT OF GRADIENT IS LARGER THAN  0.20

 CYCLE:   151 TIME:   0.023 TIME LEFT:  2.00D  GRAD.:     1.239 HEAT: -87.21384    
 TEST ON GRADIENT SATISFIED
                    HOWEVER, A COMPONENT OF GRADIENT IS LARGER THAN  0.20

 CYCLE:   152 TIME:   0.031 TIME LEFT:  2.00D  GRAD.:     1.592 HEAT: -87.21618    
 TEST ON GRADIENT SATISFIED
                    HOWEVER, A COMPONENT OF GRADIENT IS LARGER THAN  0.20

 CYCLE:   153 TIME:   0.031 TIME LEFT:  2.00D  GRAD.:     1.619 HEAT: -87.21898    
 TEST ON GRADIENT SATISFIED
                    HOWEVER, A COMPONENT OF GRADIENT IS LARGER THAN  0.20

 CYCLE:   154 TIME:   0.023 TIME LEFT:  2.00D  GRAD.:     1.483 HEAT: -87.22170    
 TEST ON GRADIENT SATISFIED
                    HOWEVER, A COMPONENT OF GRADIENT IS LARGER THAN  0.20

 CYCLE:   155 TIME:   0.023 TIME LEFT:  2.00D  GRAD.:     1.292 HEAT: -87.22445    
 TEST ON GRADIENT SATISFIED
                    HOWEVER, A COMPONENT OF GRADIENT IS LARGER THAN  0.20

 CYCLE:   156 TIME:   0.031 TIME LEFT:  2.00D  GRAD.:     1.417 HEAT: -87.22672    
 TEST ON GRADIENT SATISFIED
                    HOWEVER, A COMPONENT OF GRADIENT IS LARGER THAN  0.20

 CYCLE:   157 TIME:   0.031 TIME LEFT:  2.00D  GRAD.:     1.723 HEAT: -87.22972    
 TEST ON GRADIENT SATISFIED
                    HOWEVER, A COMPONENT OF GRADIENT IS LARGER THAN  0.20

 CYCLE:   158 TIME:   0.023 TIME LEFT:  2.00D  GRAD.:     1.853 HEAT: -87.23351    
 TEST ON GRADIENT SATISFIED
                    HOWEVER, A COMPONENT OF GRADIENT IS LARGER THAN  0.20

 CYCLE:   159 TIME:   0.023 TIME LEFT:  2.00D  GRAD.:     1.735 HEAT: -87.23832    
 TEST ON GRADIENT SATISFIED
                    HOWEVER, A COMPONENT OF GRADIENT IS LARGER THAN  0.20

 CYCLE:   160 TIME:   0.031 TIME LEFT:  2.00D  GRAD.:     1.496 HEAT: -87.24245    
 TEST ON GRADIENT SATISFIED
                    HOWEVER, A COMPONENT OF GRADIENT IS LARGER THAN  0.20

 CYCLE:   161 TIME:   0.031 TIME LEFT:  2.00D  GRAD.:     1.460 HEAT: -87.24613    
 TEST ON GRADIENT SATISFIED
                    HOWEVER, A COMPONENT OF GRADIENT IS LARGER THAN  0.20

 CYCLE:   162 TIME:   0.023 TIME LEFT:  2.00D  GRAD.:     1.454 HEAT: -87.24897    
 TEST ON GRADIENT SATISFIED
                    HOWEVER, A COMPONENT OF GRADIENT IS LARGER THAN  0.20

 CYCLE:   163 TIME:   0.023 TIME LEFT:  2.00D  GRAD.:     1.457 HEAT: -87.25108    
 TEST ON GRADIENT SATISFIED
                    HOWEVER, A COMPONENT OF GRADIENT IS LARGER THAN  0.20

 CYCLE:   164 TIME:   0.031 TIME LEFT:  2.00D  GRAD.:     1.208 HEAT: -87.25300    
 TEST ON GRADIENT SATISFIED
                    HOWEVER, A COMPONENT OF GRADIENT IS LARGER THAN  0.20

 CYCLE:   165 TIME:   0.031 TIME LEFT:  2.00D  GRAD.:     1.032 HEAT: -87.25524    
 TEST ON GRADIENT SATISFIED
                    HOWEVER, A COMPONENT OF GRADIENT IS LARGER THAN  0.20

 CYCLE:   166 TIME:   0.016 TIME LEFT:  2.00D  GRAD.:     1.102 HEAT: -87.25703    
 TEST ON GRADIENT SATISFIED
                    HOWEVER, A COMPONENT OF GRADIENT IS LARGER THAN  0.20

 CYCLE:   167 TIME:   0.039 TIME LEFT:  2.00D  GRAD.:     1.108 HEAT: -87.25865    
 TEST ON GRADIENT SATISFIED
                    HOWEVER, A COMPONENT OF GRADIENT IS LARGER THAN  0.20

 CYCLE:   168 TIME:   0.039 TIME LEFT:  2.00D  GRAD.:     0.847 HEAT: -87.26001    
 TEST ON GRADIENT SATISFIED
                    HOWEVER, A COMPONENT OF GRADIENT IS LARGER THAN  0.20

 CYCLE:   169 TIME:   0.016 TIME LEFT:  2.00D  GRAD.:     0.691 HEAT: -87.26059    
 TEST ON GRADIENT SATISFIED
                    HOWEVER, A COMPONENT OF GRADIENT IS LARGER THAN  0.20

           THERE HAVE BEEN 3 ATTEMPTS TO REDUCE THE GRADIENT.
           DURING THESE ATTEMPTS THE ENERGY DROPPED BY LESS THAN 0.0 KCAL/MOLE
           FURTHER CALCULATION IS NOT JUSTIFIED AT THIS TIME.

 -------------------------------------------------------------------------------
 BFGS PM7 MMOK PRECISE
 C20H14O4



     GRADIENT TEST NOT PASSED, BUT FURTHER WORK NOT JUSTIFIED 
     SCF FIELD WAS ACHIEVED                                   


                              PM7 CALCULATION
                                                       MOPAC2012 (Version: 14.208M)
                                                       Mon Mar 23 22:56:49 2015
                                                       No. of days left = 126




          FINAL HEAT OF FORMATION =        -87.26101 KCAL/MOL =    -365.10006 KJ/MOL


          TOTAL ENERGY            =      -3825.98174 EV
          ELECTRONIC ENERGY       =     -28468.52905 EV  POINT GROUP:     C1  
          CORE-CORE REPULSION     =      24642.54731 EV
          COSMO AREA              =        316.15 SQUARE ANGSTROMS
          COSMO VOLUME            =        363.38 CUBIC ANGSTROMS

          GRADIENT NORM           =          0.66296
          IONIZATION POTENTIAL    =          9.254268 EV
          HOMO LUMO ENERGIES (EV) =         -9.254 -0.837
          NO. OF FILLED LEVELS    =         59
          MOLECULAR WEIGHT        =        318.328

          MOLECULAR DIMENSIONS (Angstroms)

            Atom       Atom       Distance
            H    14    H    38     9.63017
            H    36    H    13     9.50071
            H    33    O    19     6.19670


          SCF CALCULATIONS        =        215
 
          WALL-CLOCK TIME         =          4.977 SECONDS
          COMPUTATION TIME        =          9.341 SECONDS




   ATOM   CHEMICAL          X               Y               Z
  NUMBER   SYMBOL      (ANGSTROMS)     (ANGSTROMS)     (ANGSTROMS)
 
     1       C         -0.28504618  *   1.71404265  *   1.84680812  *
     2       C          1.63548601  *  -1.54407928  *  -1.01801903  *
     3       C          2.14134609  *  -0.34938698  *   1.02990478  *
     4       C         -2.24153902  *  -0.44189852  *  -1.08440726  *
     5       C         -1.30246047  *  -1.51973457  *   0.87404003  *
     6       C         -0.05784070  *   3.89963040  *   0.05319213  *
     7       C         -0.37298920  *   3.03681040  *   2.30230170  *
     8       C          2.77711009  *  -2.31630708  *  -0.87030989  *
     9       C          3.29196861  *  -1.11586721  *   1.20304649  *
    10       C         -3.40553589  *  -1.18611751  *  -0.95111109  *
    11       C         -2.46090035  *  -2.27452374  *   1.03057398  *
    12       C         -0.25468112  *   4.11176174  *   1.42404459  *
    13       H          5.23698102  *  -2.68160706  *   1.12844837  *
    14       H         -4.68101053  *  -3.41351760  *   0.94228026  *
    15       C          1.30993523  *  -0.56636412  *  -0.06569090  *
    16       C         -1.19337723  *  -0.60342055  *  -0.17269759  *
    17       C          3.58887588  *  -2.08944174  *   0.24849565  *
    18       C         -3.49624998  *  -2.09206697  *   0.11162190  *
    19       O          0.29940296  *   2.59289123  *  -2.81898193  *
    20       O          4.68343556  *  -2.88671741  *   0.33750126  *
    21       O         -4.66351943  *  -2.78125432  *   0.18456185  *
    22       C          0.18209339  *   2.05857755  *  -1.75574038  *
    23       C         -0.07120408  *   1.50926463  *   0.49858053  *
    24       C          0.02517022  *   2.59426235  *  -0.38835545  *
    25       O          0.15105037  *   0.67619241  *  -1.68216814  *
    26       C          0.05428635  *   0.22575260  *  -0.29796435  *
    27       H         -0.39553541  *   0.88074718  *   2.53663632  *
    28       H          0.98179351  *  -1.68933332  *  -1.88336889  *
    29       H          1.90683774  *   0.42475858  *   1.76119022  *
    30       H         -2.14321749  *   0.26796262  *  -1.91009141  *
    31       H         -0.47390898  *  -1.65297540  *   1.57151819  *
    32       H          0.02317825  *   4.73568764  *  -0.64165259  *
    33       H         -0.54021027  *   3.22337108  *   3.36327547  *
    34       H          3.05110768  *  -3.07922832  *  -1.59460792  *
    35       H          3.94001161  *  -0.95102901  *   2.05529789  *
    36       H         -4.23430374  *  -1.08069325  *  -1.64675000  *
    37       H         -2.55099244  *  -2.98625255  *   1.84244675  *
    38       H         -0.32152635  *   5.13007937  *   1.80363958  *
                             CARTESIAN COORDINATES

   1    C       -0.285046184     1.714042653     1.846808121
   2    C        1.635486014    -1.544079280    -1.018019026
   3    C        2.141346095    -0.349386985     1.029904781
   4    C       -2.241539023    -0.441898517    -1.084407260
   5    C       -1.302460466    -1.519734568     0.874040029
   6    C       -0.057840695     3.899630404     0.053192129
   7    C       -0.372989199     3.036810400     2.302301704
   8    C        2.777110090    -2.316307082    -0.870309891
   9    C        3.291968610    -1.115867210     1.203046490
  10    C       -3.405535894    -1.186117509    -0.951111094
  11    C       -2.460900349    -2.274523736     1.030573976
  12    C       -0.254681120     4.111761739     1.424044593
  13    H        5.236981017    -2.681607063     1.128448372
  14    H       -4.681010526    -3.413517603     0.942280260
  15    C        1.309935235    -0.566364118    -0.065690900
  16    C       -1.193377229    -0.603420545    -0.172697591
  17    C        3.588875879    -2.089441740     0.248495651
  18    C       -3.496249975    -2.092066967     0.111621897
  19    O        0.299402957     2.592891226    -2.818981934
  20    O        4.683435560    -2.886717410     0.337501264
  21    O       -4.663519431    -2.781254324     0.184561855
  22    C        0.182093390     2.058577549    -1.755740379
  23    C       -0.071204084     1.509264627     0.498580530
  24    C        0.025170220     2.594262350    -0.388355454
  25    O        0.151050373     0.676192406    -1.682168143
  26    C        0.054286349     0.225752596    -0.297964351
  27    H       -0.395535408     0.880747185     2.536636323
  28    H        0.981793505    -1.689333321    -1.883368887
  29    H        1.906837743     0.424758584     1.761190223
  30    H       -2.143217487     0.267962624    -1.910091405
  31    H       -0.473908984    -1.652975401     1.571518191
  32    H        0.023178248     4.735687645    -0.641652587
  33    H       -0.540210269     3.223371082     3.363275466
  34    H        3.051107678    -3.079228318    -1.594607919
  35    H        3.940011610    -0.951029005     2.055297893
  36    H       -4.234303744    -1.080693248    -1.646750005
  37    H       -2.550992442    -2.986252552     1.842446749
  38    H       -0.321526354     5.130079372     1.803639578


           Empirical Formula: C20 H14 O4  =    38 atoms



      MOLECULAR POINT GROUP   :   C1  


                  EIGENVALUES  
 -32.25894 -31.31407 -31.13951 -31.10137 -30.60385 -30.15036 -30.12679 -27.76695
 -26.75345 -26.49606 -26.24284 -25.96775 -25.27332 -23.37206 -22.71584 -22.01955
 -21.80999 -21.29596 -20.99839 -20.17776 -19.92191 -18.67401 -18.48022 -17.73370
 -17.21272 -16.97642 -16.61743 -16.24691 -16.03330 -15.46086 -15.44700 -15.25956
 -15.08221 -14.85648 -14.75645 -14.68785 -14.65639 -14.59676 -14.53373 -14.13701
 -13.96574 -13.69714 -13.62049 -13.14642 -12.98518 -12.89590 -12.75402 -12.36927
 -12.31149 -12.07413 -11.94727 -11.24128 -10.77031 -10.50078 -10.28578 -10.23109
 -10.19793  -9.37612  -9.25427  -0.83653  -0.42023  -0.10898  -0.05978  -0.03408
   0.01719   1.17952   1.43731   2.08510   2.19473   2.24356   2.25804   2.30644
   2.62638   2.88951   3.39411   3.47464   3.85571   3.97821   4.02447   4.08149
   4.17485   4.22857   4.28967   4.44401   4.48671   4.62309   4.67221   4.72259
   4.81908   4.83389   5.00053   5.01349   5.21334   5.25698   5.31365   5.36846
   5.37616   5.54568   5.57347   5.59072   5.63389   5.65899   5.66171   5.72977
   5.85109   5.86325   6.02639   6.05445   6.22174   6.22910


              NET ATOMIC CHARGES AND DIPOLE CONTRIBUTIONS

  ATOM NO.   TYPE          CHARGE      No. of ELECS.   s-Pop       p-Pop       
    1          C          -0.166717        4.1667     1.07912     3.08760
    2          C          -0.033805        4.0338     1.09034     2.94347
    3          C          -0.068267        4.0683     1.08451     2.98376
    4          C          -0.052082        4.0521     1.08806     2.96402
    5          C          -0.063783        4.0638     1.08439     2.97939
    6          C          -0.056013        4.0560     1.08653     2.96949
    7          C          -0.097923        4.0979     1.08898     3.00894
    8          C          -0.253464        4.2535     1.07635     3.17711
    9          C          -0.318020        4.3180     1.07431     3.24371
   10          C          -0.248592        4.2486     1.07611     3.17248
   11          C          -0.313734        4.3137     1.07502     3.23872
   12          C          -0.174141        4.1741     1.08405     3.09009
   13          H           0.327667        0.6723     0.67233
   14          H           0.327569        0.6724     0.67243
   15          C          -0.137191        4.1372     1.06307     3.07413
   16          C          -0.134478        4.1345     1.06435     3.07013
   17          C           0.308417        3.6916     1.08221     2.60938
   18          C           0.302568        3.6974     1.08171     2.61572
   19          O          -0.416245        6.4162     1.87637     4.53987
   20          O          -0.473426        6.4734     1.83715     4.63627
   21          O          -0.473953        6.4740     1.83735     4.63660
   22          C           0.589752        3.4102     1.10912     2.30113
   23          C          -0.018318        4.0183     1.08560     2.93272
   24          C          -0.182027        4.1820     1.07570     3.10633
   25          O          -0.405839        6.4058     1.88594     4.51990
   26          C           0.257341        3.7427     1.07650     2.66616
   27          H           0.163787        0.8362     0.83621
   28          H           0.173706        0.8263     0.82629
   29          H           0.154580        0.8454     0.84542
   30          H           0.172569        0.8274     0.82743
   31          H           0.156592        0.8434     0.84341
   32          H           0.168928        0.8311     0.83107
   33          H           0.151373        0.8486     0.84863
   34          H           0.179200        0.8208     0.82080
   35          H           0.159496        0.8405     0.84050
   36          H           0.178587        0.8214     0.82141
   37          H           0.159726        0.8403     0.84027
   38          H           0.156157        0.8438     0.84384
 DIPOLE           X         Y         Z       TOTAL
 POINT-CHG.    -0.118     0.174     6.305     6.308
 HYBRID         0.277    -0.546     0.346     0.704
 SUM            0.159    -0.372     6.651     6.663


          ATOMIC ORBITAL ELECTRON POPULATIONS

    Atom      s        px        py        pz   
    1  C   1.07912   1.02373   1.04532   1.01855
    2  C   1.09034   0.99100   0.93184   1.02063
    3  C   1.08451   0.96425   1.00702   1.01248
    4  C   1.08806   0.95227   0.99473   1.01702
    5  C   1.08439   1.02372   0.95167   1.00401
    6  C   1.08653   0.92454   1.02854   1.01641
    7  C   1.08898   0.95336   0.98109   1.07449
    8  C   1.07635   1.01999   1.09880   1.05832
    9  C   1.07431   1.07927   1.07042   1.09402
   10  C   1.07611   1.07078   1.03927   1.06243
   11  C   1.07502   1.02325   1.11863   1.09684
   12  C   1.08405   1.02059   1.07289   0.99661
   13  H   0.67233
   14  H   0.67243
   15  C   1.06307   1.00501   1.04249   1.02663
   16  C   1.06435   0.99469   1.04103   1.03441
   17  C   1.08221   0.80995   0.85685   0.94258
   18  C   1.08171   0.80399   0.87262   0.93911
   19  O   1.87637   1.47808   1.69307   1.36873
   20  O   1.83715   1.44601   1.62479   1.56548
   21  O   1.83735   1.43889   1.60596   1.59174
   22  C   1.10912   0.68962   0.76675   0.84476
   23  C   1.08560   0.96169   0.98402   0.98700
   24  C   1.07570   1.09381   1.00190   1.01062
   25  O   1.88594   1.85105   1.33717   1.33168
   26  C   1.07650   0.96321   0.92834   0.77461
   27  H   0.83621
   28  H   0.82629
   29  H   0.84542
   30  H   0.82743
   31  H   0.84341
   32  H   0.83107
   33  H   0.84863
   34  H   0.82080
   35  H   0.84050
   36  H   0.82141
   37  H   0.84027
   38  H   0.84384



 TOTAL JOB TIME:             4.98 SECONDS

 == MOPAC DONE ==
