 *******************************************************************************
 ** Site#: 6541         For non-commercial use only     Version 14.208M 64BITS**
 *******************************************************************************
 ** Cite this work as:                                                        **
 **                                                                           **
 ** (a) MOPAC2012, James J. P. Stewart, Stewart Computational Chemistry,      **
 **  Version 14.208M web: HTTP://OpenMOPAC.net         Days remaining: 126    **
 **                                                                           **
 **                                 AND                                       **
 **                                                                           **
 ** (b) Maia, J.D.C., et al., J. Chem. Theory Comput. 2012, 8, 3072-3081.     **
 **                DOI: 10.1021/ct3004645.                                    **
 *******************************************************************************
 **                                                                           **
 **                                MOPAC2012                                  **
 **                                                                           **
 *******************************************************************************

                            PM7 CALCULATION RESULTS


 *******************************************************************************
 *  CALCULATION DONE:                                Mon Mar 23 23:17:50 2015  *
 *  PM7        - The PM7 Hamiltonian to be used
 *  MMOK       - APPLY MM CORRECTION TO CONH BARRIER
 *  PRECISE    - CRITERIA TO BE INCREASED BY 100 TIMES
 *  BFGS       - USE THE BFGS GEOMETRY OPTIMIZER
 *  T=         - A TIME OF 172800.0 SECONDS REQUESTED
 *  DUMP=N     - RESTART FILE WRITTEN EVERY  7200.000 SECONDS
 *******************************************************************************
 BFGS PM7 MMOK PRECISE
 C4H4Se

   ATOM   CHEMICAL          X               Y               Z
  NUMBER   SYMBOL      (ANGSTROMS)     (ANGSTROMS)     (ANGSTROMS)
 
     1      Se         -0.78340000  *   0.00000000  *   0.00000000  *
     2       C          0.59030000  *  -1.42800000  *   0.00000000  *
     3       C          1.72270000  *  -0.71960000  *   0.00000000  *
     4       C          1.72270000  *   0.71960000  *   0.00000000  *
     5       C          0.59030000  *   1.42800000  *   0.00000000  *
     6       H          0.45790000  *  -2.49990000  *   0.00000000  *
     7       H          2.66740000  *  -1.24300000  *   0.00030000  *
     8       H          2.66740000  *   1.24300000  *   0.00030000  *
     9       H          0.45790000  *   2.49990000  *  -0.00030000  *
 


          CARTESIAN COORDINATES 

    NO.       ATOM         X         Y         Z

     1        Se       -0.7834    0.0000    0.0000
     2         C        0.5903   -1.4280    0.0000
     3         C        1.7227   -0.7196    0.0000
     4         C        1.7227    0.7196    0.0000
     5         C        0.5903    1.4280    0.0000
     6         H        0.4579   -2.4999    0.0000
     7         H        2.6674   -1.2430    0.0003
     8         H        2.6674    1.2430    0.0003
     9         H        0.4579    2.4999   -0.0003

     ===================== shared-memory parallel CPU Section ======================
     **                                                                           **
     **  MOPAC calculations will run in shared-memory parallel CPUs               **
     **                                                                           **
     **  Number of Threads =  2                                                   **
     **                                                                           **
     **                                                                           **
     **  For information on this work, see:                                       **
     **                                                                           **
     **  Maia, J.D.C., et al., J. Chem. Theory Comput. 2012, 8, 3072-3081.        **
     **        DOI: 10.1021/ct3004645.                                            **
     **                                                                           **
     ===================== shared-memory parallel CPU Section ======================
      


 General Reference for PM7:
 "Optimization of Parameters for Semiempirical Methods VI: More Modifications to the 
 NDDO Approximations and Re-optimization of Parameters", J. J. P. Stewart, J. Mol. Mod., 1:32, 19 (2013)
 http://www.springerlink.com/openurl.asp?genre=article&id=doi:10.1007/s00894-012-1667-x

           Empirical Formula: C4 H4 Se  =     9 atoms



      MOLECULAR POINT GROUP   :   C2v 


      RHF CALCULATION, NO. OF DOUBLY OCCUPIED LEVELS =   13

      Geometry optimization using BFGS
 CYCLE:     1 TIME:   0.008 TIME LEFT:  2.00D  GRAD.:   173.257 HEAT:  40.51260    
 CYCLE:     2 TIME:   0.000 TIME LEFT:  2.00D  GRAD.:    81.669 HEAT:  37.42285    
 CYCLE:     3 TIME:   0.008 TIME LEFT:  2.00D  GRAD.:    26.064 HEAT:  35.29527    
 CYCLE:     4 TIME:   0.000 TIME LEFT:  2.00D  GRAD.:    20.148 HEAT:  34.77634    
 CYCLE:     5 TIME:   0.000 TIME LEFT:  2.00D  GRAD.:    13.271 HEAT:  34.62534    
 CYCLE:     6 TIME:   0.008 TIME LEFT:  2.00D  GRAD.:     6.577 HEAT:  34.45424    
 CYCLE:     7 TIME:   0.000 TIME LEFT:  2.00D  GRAD.:     9.928 HEAT:  34.44870    
 CYCLE:     8 TIME:   0.000 TIME LEFT:  2.00D  GRAD.:     1.385 HEAT:  34.42537    
 TEST ON GRADIENT SATISFIED
                    HOWEVER, A COMPONENT OF GRADIENT IS LARGER THAN  0.20

 CYCLE:     9 TIME:   0.008 TIME LEFT:  2.00D  GRAD.:     0.599 HEAT:  34.42499    
 TEST ON GRADIENT SATISFIED
PETERS TEST SATISFIED

 -------------------------------------------------------------------------------
 BFGS PM7 MMOK PRECISE
 C4H4Se



     PETERS TEST WAS SATISFIED IN BFGS OPTIMIZATION           
     SCF FIELD WAS ACHIEVED                                   


                              PM7 CALCULATION
                                                       MOPAC2012 (Version: 14.208M)
                                                       Mon Mar 23 23:17:50 2015
                                                       No. of days left = 126




          FINAL HEAT OF FORMATION =         34.42482 KCAL/MOL =     144.03344 KJ/MOL


          TOTAL ENERGY            =       -703.36483 EV
          ELECTRONIC ENERGY       =      -2351.93595 EV  POINT GROUP:     C2v 
          CORE-CORE REPULSION     =       1648.57112 EV
          COSMO AREA              =        116.73 SQUARE ANGSTROMS
          COSMO VOLUME            =        106.22 CUBIC ANGSTROMS

          GRADIENT NORM           =          0.18525
          IONIZATION POTENTIAL    =          8.333925 EV
          HOMO LUMO ENERGIES (EV) =         -8.334 -0.063
          NO. OF FILLED LEVELS    =         13
          MOLECULAR WEIGHT        =        131.036

          MOLECULAR DIMENSIONS (Angstroms)

            Atom       Atom       Distance
            H     9    H     6     4.67273
            H     8   Se     1     3.53833
            H     6    H     8     0.00121


          SCF CALCULATIONS        =         16
 
          WALL-CLOCK TIME         =          0.039 SECONDS
          COMPUTATION TIME        =          0.077 SECONDS




   ATOM   CHEMICAL          X               Y               Z
  NUMBER   SYMBOL      (ANGSTROMS)     (ANGSTROMS)     (ANGSTROMS)
 
     1      Se         -0.81606668  *   0.00205493  *  -0.00672702  *
     2       C          0.56514932  *  -1.30101522  *  -0.00249164  *
     3       C          1.78306674  *  -0.72621706  *   0.00042377  *
     4       C          1.78415818  *   0.72651127  *   0.00038696  *
     5       C          0.56720764  *   1.30319046  *  -0.00256016  *
     6       H          0.30977595  *  -2.33510285  *  -0.00239375  *
     7       H          2.72117473  *  -1.26646190  *   0.00290024  *
     8       H          2.72319473  *   1.26516519  *   0.00281592  *
     9       H          0.31326676  *   2.33763030  *  -0.00252724  *
                             CARTESIAN COORDINATES

   1   Se       -0.816066678     0.002054932    -0.006727016
   2    C        0.565149316    -1.301015216    -0.002491639
   3    C        1.783066744    -0.726217063     0.000423771
   4    C        1.784158181     0.726511270     0.000386960
   5    C        0.567207635     1.303190460    -0.002560165
   6    H        0.309775954    -2.335102848    -0.002393745
   7    H        2.721174731    -1.266461902     0.002900235
   8    H        2.723194730     1.265165189     0.002815918
   9    H        0.313266763     2.337630297    -0.002527240


           Empirical Formula: C4 H4 Se  =     9 atoms



      MOLECULAR POINT GROUP   :   C2v 


                  EIGENVALUES  
 -29.49871 -24.60485 -23.67108 -19.72916 -18.00924 -17.12791 -13.90369 -13.47358
 -12.81576 -11.19706 -10.35596  -9.72946  -8.33393  -0.06269   0.41730   0.49087
   1.57640   4.45537   5.22123   5.78932   5.83491   6.12652   6.15698   6.19253


              NET ATOMIC CHARGES AND DIPOLE CONTRIBUTIONS

  ATOM NO.   TYPE          CHARGE      No. of ELECS.   s-Pop       p-Pop       
    1         Se           0.276844        5.7232     1.93815     3.78501
    2          C          -0.296050        4.2961     1.11812     3.17793
    3          C          -0.163191        4.1632     1.08526     3.07793
    4          C          -0.163187        4.1632     1.08524     3.07794
    5          C          -0.295985        4.2960     1.11813     3.17786
    6          H           0.162744        0.8373     0.83726
    7          H           0.158037        0.8420     0.84196
    8          H           0.158044        0.8420     0.84196
    9          H           0.162744        0.8373     0.83726
 DIPOLE           X         Y         Z       TOTAL
 POINT-CHG.    -0.871     0.001    -0.002     0.871
 HYBRID         1.001    -0.001     0.003     1.001
 SUM            0.129    -0.000     0.001     0.129


          ATOMIC ORBITAL ELECTRON POPULATIONS

    Atom      s        px        py        pz   
    1 Se   1.93815   1.02533   0.92556   1.83412
    2  C   1.11812   1.02335   1.09348   1.06110
    3  C   1.08526   1.05401   1.00207   1.02185
    4  C   1.08524   1.05416   1.00195   1.02184
    5  C   1.11813   1.02330   1.09347   1.06109
    6  H   0.83726
    7  H   0.84196
    8  H   0.84196
    9  H   0.83726



 TOTAL JOB TIME:             0.05 SECONDS

 == MOPAC DONE ==
