 *******************************************************************************
 ** Site#: 6541         For non-commercial use only     Version 14.208M 64BITS**
 *******************************************************************************
 ** Cite this work as:                                                        **
 **                                                                           **
 ** (a) MOPAC2012, James J. P. Stewart, Stewart Computational Chemistry,      **
 **  Version 14.208M web: HTTP://OpenMOPAC.net         Days remaining: 172    **
 **                                                                           **
 **                                 AND                                       **
 **                                                                           **
 ** (b) Maia, J.D.C., et al., J. Chem. Theory Comput. 2012, 8, 3072-3081.     **
 **                DOI: 10.1021/ct3004645.                                    **
 *******************************************************************************
 **                                                                           **
 **                                MOPAC2012                                  **
 **                                                                           **
 *******************************************************************************

                            PM7 CALCULATION RESULTS


 *******************************************************************************
 *  CALCULATION DONE:                                Thu Feb  5 17:23:10 2015  *
 *  PM7        - The PM7 Hamiltonian to be used
 *  MMOK       - APPLY MM CORRECTION TO CONH BARRIER
 *  PRECISE    - CRITERIA TO BE INCREASED BY 100 TIMES
 *  BFGS       - USE THE BFGS GEOMETRY OPTIMIZER
 *  T=         - A TIME OF 172800.0 SECONDS REQUESTED
 *  DUMP=N     - RESTART FILE WRITTEN EVERY  7200.000 SECONDS
 *******************************************************************************
 BFGS PM7 PRECISE MMOK
 /Users/ghutchis/Desktop/esters/ethylpentanoate.pdb

  ATOM    CHEMICAL      BOND LENGTH      BOND ANGLE     TWIST ANGLE 
 NUMBER    SYMBOL       (ANGSTROMS)      (DEGREES)       (DEGREES) 
   (I)                     NA:I           NB:NA:I       NC:NB:NA:I       NA    NB    NC 
     1       C          0.00000000  *    0.0000000  *    0.0000000  *     0     0     0
     2       O          1.35715400  *    0.0000000  *    0.0000000  *     1     0     0
     3       C          1.38100900  *  123.5832150  *    0.0000000  *     2     1     0
     4       C          1.52065900  *  109.3674300  *  179.7442200  *     3     2     1
     5       H          1.11178500  *  109.8752880  *   60.0001120  *     3     2     1
     6       H          1.11213500  *  109.9174820  *  -60.3898130  *     3     2     1
     7       O          1.22471000  *  120.5812650  *    0.7050060  *     1     2     3
     8       H          1.11106400  *  110.0103830  *  -59.9520000  *     4     3     2
     9       H          1.11010900  *  109.8122490  * -179.8484630  *     4     3     2
    10       H          1.11098900  *  110.0678580  *   60.2364060  *     4     3     2
    11       C          1.50640300  *  118.6252150  * -178.9515430  *     1     2     3
    12       C          1.53597300  *  113.5643540  *  179.3990440  *    11     1     2
    13       H          1.11163700  *  107.9265770  *   58.3489830  *    11     1     2
    14       H          1.11122900  *  108.1992990  *  -59.1495300  *    11     1     2
    15       C          1.53410700  *  110.5871090  * -179.2722460  *    12    11     1
    16       H          1.11200200  *  109.4560990  *   60.1641850  *    12    11     1
    17       H          1.11203600  *  109.2939280  *  -59.0503680  *    12    11     1
    18       C          1.52484300  *  111.4029080  *  179.6451290  *    15    12    11
    19       H          1.11226000  *  109.5432320  *   59.3816730  *    15    12    11
    20       H          1.11168500  *  109.6628500  *  -59.7778710  *    15    12    11
    21       H          1.11136200  *  110.3455140  *  -60.2319490  *    18    15    12
    22       H          1.11011500  *  109.5029100  * -179.7710380  *    18    15    12
    23       H          1.11066900  *  110.3448890  *   60.5938150  *    18    15    12
 


          CARTESIAN COORDINATES 

    NO.       ATOM         X         Y         Z

     1         C        0.0000    0.0000    0.0000
     2         O        1.3572    0.0000    0.0000
     3         C        2.1211    1.1505    0.0000
     4         C        3.5951    0.7771    0.0064
     5         H        1.8946    1.7546    0.9055
     6         H        1.9002    1.7519   -0.9091
     7         O       -0.6231    1.0543   -0.0130
     8         H        3.8319    0.1792    0.9125
     9         H        4.2163    1.6971    0.0092
    10         H        3.8408    0.1790   -0.8971
    11         C       -0.7217   -1.3221    0.0242
    12         C       -2.2516   -1.1864    0.0365
    13         H       -0.3984   -1.8717    0.9348
    14         H       -0.4128   -1.9025   -0.8716
    15         C       -2.9155   -2.5687    0.0792
    16         H       -2.5829   -0.6461   -0.8773
    17         H       -2.5617   -0.6043    0.9319
    18         C       -4.4359   -2.4554    0.1008
    19         H       -2.5859   -3.1117    0.9923
    20         H       -2.6116   -3.1573   -0.8136
    21         H       -4.7686   -1.8899    0.9978
    22         H       -4.8828   -3.4710    0.1357
    23         H       -4.7976   -1.9381   -0.8131

     ===================== shared-memory parallel CPU Section ======================
     **                                                                           **
     **  MOPAC calculations will run in shared-memory parallel CPUs               **
     **                                                                           **
     **  Number of Threads =  2                                                   **
     **                                                                           **
     **                                                                           **
     **  For information on this work, see:                                       **
     **                                                                           **
     **  Maia, J.D.C., et al., J. Chem. Theory Comput. 2012, 8, 3072-3081.        **
     **        DOI: 10.1021/ct3004645.                                            **
     **                                                                           **
     ===================== shared-memory parallel CPU Section ======================
      


 General Reference for PM7:
 "Optimization of Parameters for Semiempirical Methods VI: More Modifications to the 
 NDDO Approximations and Re-optimization of Parameters", J. J. P. Stewart, J. Mol. Mod., 1:32, 19 (2013)
 http://www.springerlink.com/openurl.asp?genre=article&id=doi:10.1007/s00894-012-1667-x

           Empirical Formula: C7 H14 O2  =    23 atoms



      MOLECULAR POINT GROUP   :   Cs  


      RHF CALCULATION, NO. OF DOUBLY OCCUPIED LEVELS =   27

      Geometry optimization using BFGS
 CYCLE:     1 TIME:   0.012 TIME LEFT:  2.00D  GRAD.:    29.957 HEAT: -117.4379    
 CYCLE:     2 TIME:   0.008 TIME LEFT:  2.00D  GRAD.:    24.316 HEAT: -118.3810    
 CYCLE:     3 TIME:   0.004 TIME LEFT:  2.00D  GRAD.:    14.763 HEAT: -118.7259    
 CYCLE:     4 TIME:   0.008 TIME LEFT:  2.00D  GRAD.:     8.728 HEAT: -119.0406    
 CYCLE:     5 TIME:   0.004 TIME LEFT:  2.00D  GRAD.:     4.516 HEAT: -119.0923    
 CYCLE:     6 TIME:   0.008 TIME LEFT:  2.00D  GRAD.:     2.248 HEAT: -119.1175    
 TEST ON GRADIENT SATISFIED
                    HOWEVER, A COMPONENT OF GRADIENT IS LARGER THAN  0.20

 CYCLE:     7 TIME:   0.008 TIME LEFT:  2.00D  GRAD.:     1.245 HEAT: -119.1239    
 TEST ON GRADIENT SATISFIED
                    HOWEVER, A COMPONENT OF GRADIENT IS LARGER THAN  0.20

 CYCLE:     8 TIME:   0.004 TIME LEFT:  2.00D  GRAD.:     0.805 HEAT: -119.1255    
 TEST ON GRADIENT SATISFIED
                    HOWEVER, A COMPONENT OF GRADIENT IS LARGER THAN  0.20

 CYCLE:     9 TIME:   0.008 TIME LEFT:  2.00D  GRAD.:     0.337 HEAT: -119.1262    
 TEST ON GRADIENT SATISFIED
PETERS TEST SATISFIED

 -------------------------------------------------------------------------------
 BFGS PM7 PRECISE MMOK
 /Users/ghutchis/Desktop/esters/ethylpentanoate.pdb



     PETERS TEST WAS SATISFIED IN BFGS OPTIMIZATION           
     SCF FIELD WAS ACHIEVED                                   


                              PM7 CALCULATION
                                                       MOPAC2012 (Version: 14.208M)
                                                       Thu Feb  5 17:23:10 2015
                                                       No. of days left = 172




          FINAL HEAT OF FORMATION =       -119.12635 KCAL/MOL =    -498.42467 KJ/MOL


          TOTAL ENERGY            =      -1640.43276 EV
          ELECTRONIC ENERGY       =      -7898.07139 EV  POINT GROUP:     Cs  
          CORE-CORE REPULSION     =       6257.63863 EV
          COSMO AREA              =        190.80 SQUARE ANGSTROMS
          COSMO VOLUME            =        180.67 CUBIC ANGSTROMS

          GRADIENT NORM           =          0.20618
          IONIZATION POTENTIAL    =         10.745812 EV
          HOMO LUMO ENERGIES (EV) =        -10.746  1.196
          NO. OF FILLED LEVELS    =         27
          MOLECULAR WEIGHT        =        130.186

          MOLECULAR DIMENSIONS (Angstroms)

            Atom       Atom       Distance
            H    22    H     9    10.32789
            O     7    H     8     3.13750
            H     5    H    10     2.38742


          SCF CALCULATIONS        =         14
 
          WALL-CLOCK TIME         =          0.098 SECONDS
          COMPUTATION TIME        =          0.180 SECONDS




  ATOM    CHEMICAL      BOND LENGTH      BOND ANGLE     TWIST ANGLE 
 NUMBER    SYMBOL       (ANGSTROMS)      (DEGREES)       (DEGREES) 
   (I)                     NA:I           NB:NA:I       NC:NB:NA:I       NA    NB    NC 
     1       C          0.01000003  *    0.0100002  *    0.0100003  *     0     0     0
     2       O          1.35671152  *    0.5729578  *  179.4270422  *     1     0     0
     3       C          1.43586606  *  116.3599646  *   -0.5729578  *     2     1     0
     4       C          1.51999104  *  104.1436611  *  179.9604890  *     3     2     1
     5       H          1.10431230  *  108.4454614  *   59.3303274  *     3     2     1
     6       H          1.10430630  *  108.4580674  *  -59.3949823  *     3     2     1
     7       O          1.20374548  *  122.2349120  *    0.3647617  *     1     2     3
     8       H          1.09803030  *  111.2873953  *  -59.2796960  *     4     3     2
     9       H          1.09568465  *  111.1410152  * -179.7425009  *     4     3     2
    10       H          1.09799471  *  111.2949222  *   59.7894893  *     4     3     2
    11       C          1.49830201  *  109.3176362  * -179.6511530  *     1     2     3
    12       C          1.53097116  *  110.1079411  *  179.9303507  *    11     1     2
    13       H          1.11108424  *  109.8101210  *   57.5243424  *    11     1     2
    14       H          1.11100917  *  109.8197341  *  -57.6642663  *    11     1     2
    15       C          1.53295312  *  110.7400844  * -179.8578589  *    12    11     1
    16       H          1.10843601  *  110.1156506  *   57.8027546  *    12    11     1
    17       H          1.10841544  *  110.1110215  *  -57.4977535  *    12    11     1
    18       C          1.52857634  *  110.5938788  * -179.9535282  *    15    12    11
    19       H          1.10657573  *  110.1854111  *   58.3336194  *    15    12    11
    20       H          1.10657557  *  110.1864486  *  -58.2376772  *    15    12    11
    21       H          1.09608691  *  111.5056534  *  -59.9557028  *    18    15    12
    22       H          1.09534692  *  111.3052572  * -179.9168953  *    18    15    12
    23       H          1.09608872  *  111.5042831  *   60.1226158  *    18    15    12
                             CARTESIAN COORDINATES

   1    C        0.010000033     0.010000195     0.010000271
   2    O        1.366711554     0.010000195     0.010000271
   3    C        2.004249286     1.296568108     0.010000271
   4    C        3.489820911     0.974933734     0.011016677
   5    H        1.680593250     1.846903428     0.911046027
   6    H        1.681643775     1.846637960    -0.891576817
   7    O       -0.632067919     1.028189719     0.003518091
   8    H        3.768291035     0.380030967     0.890911911
   9    H        4.092287582     1.890104108     0.015701521
  10    H        3.771168916     0.387176013    -0.872712100
  11    C       -0.485645595    -1.403919959     0.018609071
  12    C       -2.016470114    -1.425025941     0.020485234
  13    H       -0.080529645    -1.939566270     0.903748769
  14    H       -0.082680736    -1.949717167    -0.861201201
  15    C       -2.539504105    -2.865938213     0.032835547
  16    H       -2.406302362    -0.880764404    -0.862940251
  17    H       -2.404258470    -0.866076962     0.895574384
  18    C       -4.067983716    -2.883120682     0.033516437
  19    H       -2.156276433    -3.403658788     0.920812445
  20    H       -2.156862264    -3.418611189    -0.846168031
  21    H       -4.475207643    -2.369662133     0.912115034
  22    H       -4.454463210    -3.907968484     0.043785883
  23    H       -4.475774439    -2.387149795    -0.854813506


           Empirical Formula: C7 H14 O2  =    23 atoms



      MOLECULAR POINT GROUP   :   Cs  


                  EIGENVALUES  
 -31.30343 -29.87494 -29.07902 -27.36495 -26.14416 -22.94536 -21.27246 -20.32862
 -19.65602 -17.12765 -17.06343 -16.26818 -15.91473 -15.02077 -14.86796 -14.09906
 -13.77890 -13.56432 -13.38826 -12.64403 -12.49979 -12.30714 -12.29965 -11.98209
 -11.41585 -11.00620 -10.74581   1.19600   1.70620   3.24072   3.69697   3.98905
   4.22491   4.49012   4.62904   4.97198   5.26254   5.32671   5.38194   5.56416
   5.79114   5.81077   5.81786   5.84591   6.05330   6.06294   6.47380   6.57204
   6.75165   6.96548


              NET ATOMIC CHARGES AND DIPOLE CONTRIBUTIONS

  ATOM NO.   TYPE          CHARGE      No. of ELECS.   s-Pop       p-Pop       
    1          C           0.607647        3.3924     1.12179     2.27056
    2          O          -0.445687        6.4457     1.86711     4.57857
    3          C           0.010731        3.9893     1.08849     2.90078
    4          C          -0.462598        4.4626     1.05437     3.40823
    5          H           0.133327        0.8667     0.86667
    6          H           0.133560        0.8664     0.86644
    7          O          -0.513633        6.5136     1.87625     4.63738
    8          H           0.159055        0.8409     0.84094
    9          H           0.153782        0.8462     0.84622
   10          H           0.158960        0.8410     0.84104
   11          C          -0.353842        4.3538     1.06754     3.28631
   12          C          -0.253301        4.2533     1.05802     3.19528
   13          H           0.177034        0.8230     0.82297
   14          H           0.177052        0.8229     0.82295
   15          C          -0.247951        4.2480     1.05508     3.19287
   16          H           0.153420        0.8466     0.84658
   17          H           0.153444        0.8466     0.84656
   18          C          -0.438472        4.4385     1.05187     3.38661
   19          H           0.134081        0.8659     0.86592
   20          H           0.134098        0.8659     0.86590
   21          H           0.145042        0.8550     0.85496
   22          H           0.139233        0.8608     0.86077
   23          H           0.145020        0.8550     0.85498
 DIPOLE           X         Y         Z       TOTAL
 POINT-CHG.     1.142    -1.590     0.024     1.958
 HYBRID         0.105     0.043    -0.002     0.114
 SUM            1.248    -1.547     0.022     1.987


          ATOMIC ORBITAL ELECTRON POPULATIONS

    Atom      s        px        py        pz   
    1  C   1.12179   0.75091   0.85989   0.65976
    2  O   1.86711   1.32683   1.40387   1.84787
    3  C   1.08849   0.92602   0.83442   1.14035
    4  C   1.05437   1.04062   1.17133   1.19627
    5  H   0.86667
    6  H   0.86644
    7  O   1.87625   1.68170   1.43850   1.51717
    8  H   0.84094
    9  H   0.84622
   10  H   0.84104
   11  C   1.06754   1.05836   1.03388   1.19407
   12  C   1.05802   0.96240   1.04482   1.18806
   13  H   0.82297
   14  H   0.82295
   15  C   1.05508   1.00519   1.02871   1.15898
   16  H   0.84658
   17  H   0.84656
   18  C   1.05187   1.03795   1.17139   1.17727
   19  H   0.86592
   20  H   0.86590
   21  H   0.85496
   22  H   0.86077
   23  H   0.85498



 TOTAL JOB TIME:             0.10 SECONDS

 == MOPAC DONE ==
