 *******************************************************************************
 ** Site#: 6541         For non-commercial use only     Version 14.208M 64BITS**
 *******************************************************************************
 ** Cite this work as:                                                        **
 **                                                                           **
 ** (a) MOPAC2012, James J. P. Stewart, Stewart Computational Chemistry,      **
 **  Version 14.208M web: HTTP://OpenMOPAC.net         Days remaining: 172    **
 **                                                                           **
 **                                 AND                                       **
 **                                                                           **
 ** (b) Maia, J.D.C., et al., J. Chem. Theory Comput. 2012, 8, 3072-3081.     **
 **                DOI: 10.1021/ct3004645.                                    **
 *******************************************************************************
 **                                                                           **
 **                                MOPAC2012                                  **
 **                                                                           **
 *******************************************************************************

                            PM7 CALCULATION RESULTS


 *******************************************************************************
 *  CALCULATION DONE:                                Thu Feb  5 17:23:11 2015  *
 *  PM7        - The PM7 Hamiltonian to be used
 *  MMOK       - APPLY MM CORRECTION TO CONH BARRIER
 *  PRECISE    - CRITERIA TO BE INCREASED BY 100 TIMES
 *  BFGS       - USE THE BFGS GEOMETRY OPTIMIZER
 *  T=         - A TIME OF 172800.0 SECONDS REQUESTED
 *  DUMP=N     - RESTART FILE WRITTEN EVERY  7200.000 SECONDS
 *******************************************************************************
 BFGS PM7 PRECISE MMOK
 /Users/ghutchis/Desktop/esters/ethylhexanoate.pdb

  ATOM    CHEMICAL      BOND LENGTH      BOND ANGLE     TWIST ANGLE 
 NUMBER    SYMBOL       (ANGSTROMS)      (DEGREES)       (DEGREES) 
   (I)                     NA:I           NB:NA:I       NC:NB:NA:I       NA    NB    NC 
     1       C          0.00000000  *    0.0000000  *    0.0000000  *     0     0     0
     2       O          1.35852200  *    0.0000000  *    0.0000000  *     1     0     0
     3       C          1.38148400  *  122.9895390  *    0.0000000  *     2     1     0
     4       C          1.52048100  *  109.7688200  * -178.6236630  *     3     2     1
     5       H          1.11209800  *  109.7701440  *   61.3379210  *     3     2     1
     6       H          1.11262900  *  109.9082280  *  -58.7768220  *     3     2     1
     7       O          1.22403600  *  120.3552140  *    1.4338020  *     1     2     3
     8       H          1.10991400  *  110.1348280  *  -59.9521120  *     4     3     2
     9       H          1.11069800  *  109.5803360  * -179.8647800  *     4     3     2
    10       H          1.11115800  *  109.9711230  *   60.5300410  *     4     3     2
    11       C          1.50852200  *  119.0553280  * -178.7551340  *     1     2     3
    12       C          1.53643600  *  112.6000080  * -179.0078220  *    11     1     2
    13       H          1.11120700  *  108.3440090  *   59.7786100  *    11     1     2
    14       H          1.11143700  *  108.4682940  *  -58.1181750  *    11     1     2
    15       C          1.53288700  *  111.7544360  * -179.5419600  *    12    11     1
    16       H          1.11319200  *  108.8640760  *   59.9332990  *    12    11     1
    17       H          1.11234000  *  109.2442710  *  -58.9037770  *    12    11     1
    18       C          1.53486100  *  110.4011040  * -179.0445020  *    15    12    11
    19       H          1.11246300  *  109.3109720  *   60.4217560  *    15    12    11
    20       H          1.11207700  *  109.5300600  *  -58.6621030  *    15    12    11
    21       C          1.53159200  *  111.4602930  * -179.4539470  *    18    15    12
    22       H          1.11273800  *  109.0658920  *   59.9299250  *    18    15    12
    23       H          1.11280500  *  109.2496200  *  -58.8309530  *    18    15    12
    24       C          1.52633100  *  110.9102270  * -179.5127110  *    21    18    15
    25       H          1.11212700  *  109.6391080  *   60.2102240  *    21    18    15
    26       H          1.11221000  *  109.7973720  *  -59.2096870  *    21    18    15
    27       H          1.11104900  *  110.3811340  *  -60.0841710  *    24    21    18
    28       H          1.11019500  *  109.7501600  * -179.8249090  *    24    21    18
    29       H          1.11096600  *  110.3097810  *   60.5524530  *    24    21    18
 


          CARTESIAN COORDINATES 

    NO.       ATOM         X         Y         Z

     1         C        0.0000    0.0000    0.0000
     2         O        1.3585    0.0000    0.0000
     3         C        2.1107    1.1587    0.0000
     4         C        3.5906    0.8112   -0.0344
     5         H        1.8945    1.7476    0.9183
     6         H        1.8622    1.7718   -0.8946
     7         O       -0.6186    1.0559   -0.0264
     8         H        3.8612    0.2042    0.8545
     9         H        4.1923    1.7448   -0.0318
    10         H        3.8241    0.2362   -0.9561
    11         C       -0.7326   -1.3184    0.0286
    12         C       -2.2591   -1.1463    0.0003
    13         H       -0.4384   -1.8620    0.9521
    14         H       -0.4169   -1.9159   -0.8537
    15         C       -2.9839   -2.4964    0.0415
    16         H       -2.5436   -0.6093   -0.9323
    17         H       -2.5760   -0.5394    0.8770
    18         C       -4.5038   -2.2896   -0.0121
    19         H       -2.7143   -3.0303    0.9794
    20         H       -2.6667   -3.1152   -0.8264
    21         C       -5.2532   -3.6243    0.0412
    22         H       -4.7657   -1.7608   -0.9555
    23         H       -4.8191   -1.6606    0.8501
    24         C       -6.7622   -3.4048   -0.0249
    25         H       -5.0075   -4.1533    0.9881
    26         H       -4.9457   -4.2634   -0.8155
    27         H       -7.1005   -2.7824    0.8310
    28         H       -7.2858   -4.3828    0.0183
    29         H       -7.0368   -2.8974   -0.9743

     ===================== shared-memory parallel CPU Section ======================
     **                                                                           **
     **  MOPAC calculations will run in shared-memory parallel CPUs               **
     **                                                                           **
     **  Number of Threads =  2                                                   **
     **                                                                           **
     **                                                                           **
     **  For information on this work, see:                                       **
     **                                                                           **
     **  Maia, J.D.C., et al., J. Chem. Theory Comput. 2012, 8, 3072-3081.        **
     **        DOI: 10.1021/ct3004645.                                            **
     **                                                                           **
     ===================== shared-memory parallel CPU Section ======================
      


 General Reference for PM7:
 "Optimization of Parameters for Semiempirical Methods VI: More Modifications to the 
 NDDO Approximations and Re-optimization of Parameters", J. J. P. Stewart, J. Mol. Mod., 1:32, 19 (2013)
 http://www.springerlink.com/openurl.asp?genre=article&id=doi:10.1007/s00894-012-1667-x

           Empirical Formula: C9 H18 O2  =    29 atoms



      MOLECULAR POINT GROUP   :   Cs  


      RHF CALCULATION, NO. OF DOUBLY OCCUPIED LEVELS =   33

      Geometry optimization using BFGS
 CYCLE:     1 TIME:   0.020 TIME LEFT:  2.00D  GRAD.:    31.260 HEAT: -127.4560    
 CYCLE:     2 TIME:   0.012 TIME LEFT:  2.00D  GRAD.:    25.856 HEAT: -128.4137    
 CYCLE:     3 TIME:   0.012 TIME LEFT:  2.00D  GRAD.:    17.605 HEAT: -128.9900    
 CYCLE:     4 TIME:   0.012 TIME LEFT:  2.00D  GRAD.:     9.668 HEAT: -129.1375    
 CYCLE:     5 TIME:   0.012 TIME LEFT:  2.00D  GRAD.:    10.266 HEAT: -129.2736    
 CYCLE:     6 TIME:   0.008 TIME LEFT:  2.00D  GRAD.:     3.157 HEAT: -129.3652    
 CYCLE:     7 TIME:   0.008 TIME LEFT:  2.00D  GRAD.:     2.775 HEAT: -129.3736    
 TEST ON GRADIENT SATISFIED
                    HOWEVER, A COMPONENT OF GRADIENT IS LARGER THAN  0.20

 CYCLE:     8 TIME:   0.012 TIME LEFT:  2.00D  GRAD.:     1.197 HEAT: -129.3850    
 TEST ON GRADIENT SATISFIED
                    HOWEVER, A COMPONENT OF GRADIENT IS LARGER THAN  0.20

 CYCLE:     9 TIME:   0.008 TIME LEFT:  2.00D  GRAD.:     0.716 HEAT: -129.3862    
 TEST ON GRADIENT SATISFIED
PETERS TEST SATISFIED

 -------------------------------------------------------------------------------
 BFGS PM7 PRECISE MMOK
 /Users/ghutchis/Desktop/esters/ethylhexanoate.pdb



     PETERS TEST WAS SATISFIED IN BFGS OPTIMIZATION           
     SCF FIELD WAS ACHIEVED                                   


                              PM7 CALCULATION
                                                       MOPAC2012 (Version: 14.208M)
                                                       Thu Feb  5 17:23:11 2015
                                                       No. of days left = 172




          FINAL HEAT OF FORMATION =       -129.38665 KCAL/MOL =    -541.35372 KJ/MOL


          TOTAL ENERGY            =      -1940.36591 EV
          ELECTRONIC ENERGY       =     -10358.15420 EV  POINT GROUP:     Cs  
          CORE-CORE REPULSION     =       8417.78830 EV
          COSMO AREA              =        231.05 SQUARE ANGSTROMS
          COSMO VOLUME            =        224.54 CUBIC ANGSTROMS

          GRADIENT NORM           =          0.35504
          IONIZATION POTENTIAL    =         10.736812 EV
          HOMO LUMO ENERGIES (EV) =        -10.737  1.195
          NO. OF FILLED LEVELS    =         33
          MOLECULAR WEIGHT        =        158.240

          MOLECULAR DIMENSIONS (Angstroms)

            Atom       Atom       Distance
            H    28    H     9    12.85004
            O     7    H     8     3.15032
            H     5    H    10     2.39530


          SCF CALCULATIONS        =         16
 
          WALL-CLOCK TIME         =          0.141 SECONDS
          COMPUTATION TIME        =          0.275 SECONDS




  ATOM    CHEMICAL      BOND LENGTH      BOND ANGLE     TWIST ANGLE 
 NUMBER    SYMBOL       (ANGSTROMS)      (DEGREES)       (DEGREES) 
   (I)                     NA:I           NB:NA:I       NC:NB:NA:I       NA    NB    NC 
     1       C         -0.01000003  *    0.0100002  *    0.0100004  *     0     0     0
     2       O          1.35684328  *    0.5729578  *  179.4270422  *     1     0     0
     3       C          1.43557016  *  116.3674734  *   -0.5729578  *     2     1     0
     4       C          1.52002233  *  104.1373294  * -178.8843536  *     3     2     1
     5       H          1.10421968  *  108.3449297  *   60.5051151  *     3     2     1
     6       H          1.10431815  *  108.5297359  *  -58.2229809  *     3     2     1
     7       O          1.20376161  *  122.2143812  *   -0.0054607  *     1     2     3
     8       H          1.09807563  *  111.2838298  *  -59.1135449  *     4     3     2
     9       H          1.09572965  *  111.1412073  * -179.5901518  *     4     3     2
    10       H          1.09798827  *  111.2987330  *   59.9420632  *     4     3     2
    11       C          1.49831377  *  109.3302667  * -179.9984837  *     1     2     3
    12       C          1.53097487  *  110.1202514  * -179.6598848  *    11     1     2
    13       H          1.11111603  *  109.8090146  *   57.9750605  *    11     1     2
    14       H          1.11113957  *  109.8274709  *  -57.2442339  *    11     1     2
    15       C          1.53226969  *  110.6399714  * -179.8545201  *    12    11     1
    16       H          1.10854193  *  110.0624274  *   57.8248063  *    12    11     1
    17       H          1.10855057  *  110.0750568  *  -57.5064539  *    12    11     1
    18       C          1.53398776  *  110.4382953  * -179.3992337  *    15    12    11
    19       H          1.10617610  *  110.2054819  *   58.9356312  *    15    12    11
    20       H          1.10607283  *  110.2426909  *  -57.7205032  *    15    12    11
    21       C          1.53429574  *  110.7408349  * -179.7048406  *    18    15    12
    22       H          1.10622032  *  110.1269913  *   58.4486655  *    18    15    12
    23       H          1.10614016  *  110.1346427  *  -57.8640534  *    18    15    12
    24       C          1.52860499  *  110.8505154  * -179.8332257  *    21    18    15
    25       H          1.10631875  *  110.0380303  *   58.3113745  *    21    18    15
    26       H          1.10622309  *  110.0515327  *  -57.9784249  *    21    18    15
    27       H          1.09581413  *  111.4566763  *  -59.8003911  *    24    21    18
    28       H          1.09552995  *  111.2687733  * -179.7504083  *    24    21    18
    29       H          1.09579843  *  111.4574808  *   60.3058520  *    24    21    18
                             CARTESIAN COORDINATES

   1    C       -0.010000034     0.010000207     0.010000374
   2    O        1.346843250     0.010000207     0.010000374
   3    C        1.984418167     1.296219441     0.010000374
   4    C        3.469692603     0.974343532    -0.018698822
   5    H        1.676426155     1.836783659     0.922268072
   6    H        1.646247384     1.855549260    -0.880117177
   7    O       -0.651711689     1.028454014     0.010097439
   8    H        3.763199759     0.369040143     0.849190254
   9    H        4.072512496     1.889335056    -0.013991401
  10    H        3.735386303     0.396792886    -0.913919659
  11    C       -0.505961238    -1.403847956     0.010037792
  12    C       -2.036766692    -1.424964724     0.001504955
  13    H       -0.107505269    -1.942634958     0.896333583
  14    H       -0.097045343    -1.946716193    -0.869003164
  15    C       -2.557082339    -2.866182642     0.005101383
  16    H       -2.419707934    -0.877529705    -0.883105758
  17    H       -2.429863301    -0.869181583     0.876413246
  18    C       -4.090805908    -2.882037022    -0.018543726
  19    H       -2.188007786    -3.403394788     0.898864576
  20    H       -2.160817484    -3.418297806    -0.867561280
  21    C       -4.619536129    -4.322311309    -0.007692575
  22    H       -4.463223951    -2.349684158    -0.913880878
  23    H       -4.490773318    -2.326474788     0.850319164
  24    C       -6.147775075    -4.341092939    -0.035372493
  25    H       -4.251460961    -4.854491612     0.889662408
  26    H       -4.219354465    -4.879801583    -0.875326573
  27    H       -6.570809558    -3.820545787     0.831161466
  28    H       -6.532880555    -5.366634370    -0.023355233
  29    H       -6.538412287    -3.853524331    -0.935624463


           Empirical Formula: C9 H18 O2  =    29 atoms



      MOLECULAR POINT GROUP   :   Cs  


                  EIGENVALUES  
 -31.30504 -29.88807 -29.43547 -28.04767 -27.05840 -25.40812 -22.82006 -21.31554
 -20.34049 -20.29519 -19.39341 -17.15557 -17.12150 -16.53285 -15.95201 -15.68460
 -14.96047 -14.56429 -14.20053 -13.92543 -13.58305 -13.54856 -13.20608 -12.64745
 -12.63783 -12.40673 -12.36037 -11.90543 -11.59537 -11.55539 -11.21472 -11.00749
 -10.73681   1.19502   1.70741   3.22760   3.68449   3.88964   4.03895   4.27669
   4.54334   4.62576   4.81401   4.96860   5.26198   5.30549   5.33161   5.55390
   5.56490   5.81199   5.84413   5.84556   5.85005   6.01266   6.06191   6.17954
   6.51304   6.53533   6.61588   6.68148   6.75149   7.01334


              NET ATOMIC CHARGES AND DIPOLE CONTRIBUTIONS

  ATOM NO.   TYPE          CHARGE      No. of ELECS.   s-Pop       p-Pop       
    1          C           0.607289        3.3927     1.12206     2.27066
    2          O          -0.446772        6.4468     1.86698     4.57979
    3          C           0.010941        3.9891     1.08846     2.90060
    4          C          -0.462528        4.4625     1.05438     3.40815
    5          H           0.133044        0.8670     0.86696
    6          H           0.133734        0.8663     0.86627
    7          O          -0.513850        6.5139     1.87627     4.63758
    8          H           0.159130        0.8409     0.84087
    9          H           0.153768        0.8462     0.84623
   10          H           0.158909        0.8411     0.84109
   11          C          -0.350898        4.3509     1.06740     3.28349
   12          C          -0.253302        4.2533     1.05776     3.19555
   13          H           0.177108        0.8229     0.82289
   14          H           0.177107        0.8229     0.82289
   15          C          -0.272151        4.2722     1.05974     3.21241
   16          H           0.153260        0.8467     0.84674
   17          H           0.153492        0.8465     0.84651
   18          C          -0.269318        4.2693     1.05993     3.20938
   19          H           0.136891        0.8631     0.86311
   20          H           0.136865        0.8631     0.86314
   21          C          -0.253986        4.2540     1.05547     3.19852
   22          H           0.139098        0.8609     0.86090
   23          H           0.139158        0.8608     0.86084
   24          C          -0.439880        4.4399     1.05203     3.38785
   25          H           0.133018        0.8670     0.86698
   26          H           0.132983        0.8670     0.86702
   27          H           0.143365        0.8566     0.85664
   28          H           0.140231        0.8598     0.85977
   29          H           0.143293        0.8567     0.85671
 DIPOLE           X         Y         Z       TOTAL
 POINT-CHG.     1.113    -1.583    -0.008     1.935
 HYBRID         0.110     0.034    -0.001     0.115
 SUM            1.224    -1.549    -0.008     1.974


          ATOMIC ORBITAL ELECTRON POPULATIONS

    Atom      s        px        py        pz   
    1  C   1.12206   0.75077   0.86027   0.65962
    2  O   1.86698   1.32749   1.40429   1.84802
    3  C   1.08846   0.92606   0.83434   1.14019
    4  C   1.05438   1.04062   1.17128   1.19625
    5  H   0.86696
    6  H   0.86627
    7  O   1.87627   1.68199   1.43842   1.51717
    8  H   0.84087
    9  H   0.84623
   10  H   0.84109
   11  C   1.06740   1.05660   1.03283   1.19406
   12  C   1.05776   0.96441   1.04371   1.18743
   13  H   0.82289
   14  H   0.82289
   15  C   1.05974   1.01942   1.02983   1.16316
   16  H   0.84674
   17  H   0.84651
   18  C   1.05993   1.00341   1.03898   1.16699
   19  H   0.86311
   20  H   0.86314
   21  C   1.05547   1.00214   1.03764   1.15874
   22  H   0.86090
   23  H   0.86084
   24  C   1.05203   1.04209   1.17088   1.17489
   25  H   0.86698
   26  H   0.86702
   27  H   0.85664
   28  H   0.85977
   29  H   0.85671



 TOTAL JOB TIME:             0.14 SECONDS

 == MOPAC DONE ==
