 *******************************************************************************
 ** Site#: 6541         For non-commercial use only     Version 14.208M 64BITS**
 *******************************************************************************
 ** Cite this work as:                                                        **
 **                                                                           **
 ** (a) MOPAC2012, James J. P. Stewart, Stewart Computational Chemistry,      **
 **  Version 14.208M web: HTTP://OpenMOPAC.net         Days remaining: 126    **
 **                                                                           **
 **                                 AND                                       **
 **                                                                           **
 ** (b) Maia, J.D.C., et al., J. Chem. Theory Comput. 2012, 8, 3072-3081.     **
 **                DOI: 10.1021/ct3004645.                                    **
 *******************************************************************************
 **                                                                           **
 **                                MOPAC2012                                  **
 **                                                                           **
 *******************************************************************************

                            PM7 CALCULATION RESULTS


 *******************************************************************************
 *  CALCULATION DONE:                                Mon Mar 23 22:56:53 2015  *
 *  PM7        - The PM7 Hamiltonian to be used
 *  MMOK       - APPLY MM CORRECTION TO CONH BARRIER
 *  PRECISE    - CRITERIA TO BE INCREASED BY 100 TIMES
 *  BFGS       - USE THE BFGS GEOMETRY OPTIMIZER
 *  T=         - A TIME OF 172800.0 SECONDS REQUESTED
 *  DUMP=N     - RESTART FILE WRITTEN EVERY  7200.000 SECONDS
 *******************************************************************************
 BFGS PM7 MMOK PRECISE
 C17H14O4S

   ATOM   CHEMICAL          X               Y               Z
  NUMBER   SYMBOL      (ANGSTROMS)     (ANGSTROMS)     (ANGSTROMS)
 
     1       C          0.73740000  *   1.37140000  *  -1.04330000  *
     2       C          0.43260000  *   0.29640000  *   1.10330000  *
     3       C         -3.05240000  *  -1.61240000  *   0.98890000  *
     4       C         -2.01570000  *  -1.49270000  *  -1.18650000  *
     5       C          2.05940000  *   0.98080000  *  -1.04110000  *
     6       C          1.75690000  *  -0.08630000  *   1.08960000  *
     7       C         -3.01540000  *  -2.99010000  *   0.92340000  *
     8       C         -1.98440000  *  -2.87100000  *  -1.24010000  *
     9       C         -2.48240000  *  -3.61860000  *  -0.18790000  *
    10       C          5.13520000  *   1.12710000  *   0.82250000  *
    11       C         -0.09050000  *   1.03130000  *   0.03300000  *
    12       C         -2.55140000  *  -0.85310000  *  -0.06860000  *
    13       C          2.56870000  *   0.25420000  *   0.02140000  *
    14       O         -4.93810000  *   1.01340000  *  -0.00750000  *
    15       O          4.60000000  *  -0.30460000  *  -1.36450000  *
    16       O          4.28850000  *  -1.40320000  *   0.83020000  *
    17       C         -2.02810000  *   2.85870000  *   0.09580000  *
    18       C         -1.50040000  *   1.44370000  *   0.03940000  *
    19       C         -2.58850000  *   0.62610000  *  -0.00490000  *
    20       C         -3.80300000  *   1.44770000  *   0.02030000  *
    21       O         -3.47830000  *   2.75190000  *   0.07910000  *
    22       S          4.25980000  *  -0.24050000  *   0.01370000  *
    23       H         -1.69870000  *   3.34510000  *   1.01390000  *
    24       H         -1.68380000  *   3.42180000  *  -0.77160000  *
    25       H          0.34270000  *   1.94210000  *  -1.87090000  *
    26       H         -0.19960000  *   0.02960000  *   1.93740000  *
    27       H         -3.47240000  *  -1.12290000  *   1.85510000  *
    28       H         -1.62600000  *  -0.91020000  *  -2.00820000  *
    29       H          2.69950000  *   1.24210000  *  -1.87080000  *
    30       H          2.16220000  *  -0.65300000  *   1.91480000  *
    31       H         -3.40300000  *  -3.57910000  *   1.74150000  *
    32       H         -1.57020000  *  -3.36740000  *  -2.10530000  *
    33       H         -2.45540000  *  -4.69730000  *  -0.23440000  *
    34       H          4.75310000  *   1.25460000  *   1.83540000  *
    35       H          6.20120000  *   0.90340000  *   0.86190000  *
    36       H          4.97720000  *   2.04500000  *   0.25640000  *
 


          CARTESIAN COORDINATES 

    NO.       ATOM         X         Y         Z

     1         C        0.7374    1.3714   -1.0433
     2         C        0.4326    0.2964    1.1033
     3         C       -3.0524   -1.6124    0.9889
     4         C       -2.0157   -1.4927   -1.1865
     5         C        2.0594    0.9808   -1.0411
     6         C        1.7569   -0.0863    1.0896
     7         C       -3.0154   -2.9901    0.9234
     8         C       -1.9844   -2.8710   -1.2401
     9         C       -2.4824   -3.6186   -0.1879
    10         C        5.1352    1.1271    0.8225
    11         C       -0.0905    1.0313    0.0330
    12         C       -2.5514   -0.8531   -0.0686
    13         C        2.5687    0.2542    0.0214
    14         O       -4.9381    1.0134   -0.0075
    15         O        4.6000   -0.3046   -1.3645
    16         O        4.2885   -1.4032    0.8302
    17         C       -2.0281    2.8587    0.0958
    18         C       -1.5004    1.4437    0.0394
    19         C       -2.5885    0.6261   -0.0049
    20         C       -3.8030    1.4477    0.0203
    21         O       -3.4783    2.7519    0.0791
    22         S        4.2598   -0.2405    0.0137
    23         H       -1.6987    3.3451    1.0139
    24         H       -1.6838    3.4218   -0.7716
    25         H        0.3427    1.9421   -1.8709
    26         H       -0.1996    0.0296    1.9374
    27         H       -3.4724   -1.1229    1.8551
    28         H       -1.6260   -0.9102   -2.0082
    29         H        2.6995    1.2421   -1.8708
    30         H        2.1622   -0.6530    1.9148
    31         H       -3.4030   -3.5791    1.7415
    32         H       -1.5702   -3.3674   -2.1053
    33         H       -2.4554   -4.6973   -0.2344
    34         H        4.7531    1.2546    1.8354
    35         H        6.2012    0.9034    0.8619
    36         H        4.9772    2.0450    0.2564

     ===================== shared-memory parallel CPU Section ======================
     **                                                                           **
     **  MOPAC calculations will run in shared-memory parallel CPUs               **
     **                                                                           **
     **  Number of Threads =  2                                                   **
     **                                                                           **
     **                                                                           **
     **  For information on this work, see:                                       **
     **                                                                           **
     **  Maia, J.D.C., et al., J. Chem. Theory Comput. 2012, 8, 3072-3081.        **
     **        DOI: 10.1021/ct3004645.                                            **
     **                                                                           **
     ===================== shared-memory parallel CPU Section ======================
      


 General Reference for PM7:
 "Optimization of Parameters for Semiempirical Methods VI: More Modifications to the 
 NDDO Approximations and Re-optimization of Parameters", J. J. P. Stewart, J. Mol. Mod., 1:32, 19 (2013)
 http://www.springerlink.com/openurl.asp?genre=article&id=doi:10.1007/s00894-012-1667-x

           Empirical Formula: C17 H14 O4 S  =    36 atoms



      MOLECULAR POINT GROUP   :   C1  


      RHF CALCULATION, NO. OF DOUBLY OCCUPIED LEVELS =   56

      Geometry optimization using BFGS
 CYCLE:     1 TIME:   0.086 TIME LEFT:  2.00D  GRAD.:    57.204 HEAT: -89.59900    
 CYCLE:     2 TIME:   0.062 TIME LEFT:  2.00D  GRAD.:    50.895 HEAT: -90.26563    
 CYCLE:     3 TIME:   0.039 TIME LEFT:  2.00D  GRAD.:    44.388 HEAT: -90.96963    
 CYCLE:     4 TIME:   0.062 TIME LEFT:  2.00D  GRAD.:    35.995 HEAT: -91.53108    
 CYCLE:     5 TIME:   0.039 TIME LEFT:  2.00D  GRAD.:    32.781 HEAT: -91.91990    
 CYCLE:     6 TIME:   0.039 TIME LEFT:  2.00D  GRAD.:    45.290 HEAT: -91.96667    
 CYCLE:     7 TIME:   0.039 TIME LEFT:  2.00D  GRAD.:    38.302 HEAT: -92.38225    
 CYCLE:     8 TIME:   0.039 TIME LEFT:  2.00D  GRAD.:    24.066 HEAT: -92.69445    
 CYCLE:     9 TIME:   0.055 TIME LEFT:  2.00D  GRAD.:    18.868 HEAT: -92.82185    
 CYCLE:    10 TIME:   0.047 TIME LEFT:  2.00D  GRAD.:    12.059 HEAT: -92.90533    
 CYCLE:    11 TIME:   0.039 TIME LEFT:  2.00D  GRAD.:    19.195 HEAT: -92.91994    
 CYCLE:    12 TIME:   0.039 TIME LEFT:  2.00D  GRAD.:     9.168 HEAT: -93.03462    
 CYCLE:    13 TIME:   0.031 TIME LEFT:  2.00D  GRAD.:    13.915 HEAT: -93.03637    
 CYCLE:    14 TIME:   0.047 TIME LEFT:  2.00D  GRAD.:    10.637 HEAT: -93.06091    
 CYCLE:    15 TIME:   0.031 TIME LEFT:  2.00D  GRAD.:     7.667 HEAT: -93.08361    
 CYCLE:    16 TIME:   0.031 TIME LEFT:  2.00D  GRAD.:     5.397 HEAT: -93.09955    
 CYCLE:    17 TIME:   0.039 TIME LEFT:  2.00D  GRAD.:     4.419 HEAT: -93.10911    
 CYCLE:    18 TIME:   0.031 TIME LEFT:  2.00D  GRAD.:     3.246 HEAT: -93.11786    
 CYCLE:    19 TIME:   0.031 TIME LEFT:  2.00D  GRAD.:     3.097 HEAT: -93.12909    
 CYCLE:    20 TIME:   0.039 TIME LEFT:  2.00D  GRAD.:     3.589 HEAT: -93.13983    
 CYCLE:    21 TIME:   0.031 TIME LEFT:  2.00D  GRAD.:     3.113 HEAT: -93.15094    
 CYCLE:    22 TIME:   0.031 TIME LEFT:  2.00D  GRAD.:     2.319 HEAT: -93.15862    
 CYCLE:    23 TIME:   0.039 TIME LEFT:  2.00D  GRAD.:     2.431 HEAT: -93.16659    
 CYCLE:    24 TIME:   0.039 TIME LEFT:  2.00D  GRAD.:     2.652 HEAT: -93.17216    
 CYCLE:    25 TIME:   0.031 TIME LEFT:  2.00D  GRAD.:     2.787 HEAT: -93.17722    
 CYCLE:    26 TIME:   0.039 TIME LEFT:  2.00D  GRAD.:     2.323 HEAT: -93.18564    
 CYCLE:    27 TIME:   0.039 TIME LEFT:  2.00D  GRAD.:     2.890 HEAT: -93.19198    
 CYCLE:    28 TIME:   0.039 TIME LEFT:  2.00D  GRAD.:     2.523 HEAT: -93.19685    
 CYCLE:    29 TIME:   0.070 TIME LEFT:  2.00D  GRAD.:     2.973 HEAT: -93.20431    
 CYCLE:    30 TIME:   0.062 TIME LEFT:  2.00D  GRAD.:     3.166 HEAT: -93.21258    
 CYCLE:    31 TIME:   0.062 TIME LEFT:  2.00D  GRAD.:     3.334 HEAT: -93.22251    
 CYCLE:    32 TIME:   0.055 TIME LEFT:  2.00D  GRAD.:     3.208 HEAT: -93.23713    
 CYCLE:    33 TIME:   0.047 TIME LEFT:  2.00D  GRAD.:     3.186 HEAT: -93.24971    
 CYCLE:    34 TIME:   0.055 TIME LEFT:  2.00D  GRAD.:     3.343 HEAT: -93.26024    
 CYCLE:    35 TIME:   0.047 TIME LEFT:  2.00D  GRAD.:     2.916 HEAT: -93.27024    
 CYCLE:    36 TIME:   0.070 TIME LEFT:  2.00D  GRAD.:     4.165 HEAT: -93.28794    
 CYCLE:    37 TIME:   0.070 TIME LEFT:  2.00D  GRAD.:     4.293 HEAT: -93.30577    
 CYCLE:    38 TIME:   0.070 TIME LEFT:  2.00D  GRAD.:     6.028 HEAT: -93.33733    
 CYCLE:    39 TIME:   0.062 TIME LEFT:  2.00D  GRAD.:     5.419 HEAT: -93.35961    
 CYCLE:    40 TIME:   0.039 TIME LEFT:  2.00D  GRAD.:     5.939 HEAT: -93.40192    
 CYCLE:    41 TIME:   0.039 TIME LEFT:  2.00D  GRAD.:     5.798 HEAT: -93.44780    
 CYCLE:    42 TIME:   0.039 TIME LEFT:  2.00D  GRAD.:     8.928 HEAT: -93.46437    
 CYCLE:    43 TIME:   0.039 TIME LEFT:  2.00D  GRAD.:    12.495 HEAT: -93.48935    
 CYCLE:    44 TIME:   0.055 TIME LEFT:  2.00D  GRAD.:     6.478 HEAT: -93.55550    
 CYCLE:    45 TIME:   0.047 TIME LEFT:  2.00D  GRAD.:     4.285 HEAT: -93.58302    
 CYCLE:    46 TIME:   0.078 TIME LEFT:  2.00D  GRAD.:     4.889 HEAT: -93.62224    
 CYCLE:    47 TIME:   0.062 TIME LEFT:  2.00D  GRAD.:     5.870 HEAT: -93.64276    
 CYCLE:    48 TIME:   0.062 TIME LEFT:  2.00D  GRAD.:     5.556 HEAT: -93.66452    
 CYCLE:    49 TIME:   0.078 TIME LEFT:  2.00D  GRAD.:     4.004 HEAT: -93.69262    
 CYCLE:    50 TIME:   0.062 TIME LEFT:  2.00D  GRAD.:     6.753 HEAT: -93.72505    
 CYCLE:    51 TIME:   0.062 TIME LEFT:  2.00D  GRAD.:     6.155 HEAT: -93.77894    
 CYCLE:    52 TIME:   0.047 TIME LEFT:  2.00D  GRAD.:     4.932 HEAT: -93.81273    
 CYCLE:    53 TIME:   0.070 TIME LEFT:  2.00D  GRAD.:     4.645 HEAT: -93.84346    
 CYCLE:    54 TIME:   0.055 TIME LEFT:  2.00D  GRAD.:     5.114 HEAT: -93.87863    
 CYCLE:    55 TIME:   0.055 TIME LEFT:  2.00D  GRAD.:     4.853 HEAT: -93.90670    
 CYCLE:    56 TIME:   0.055 TIME LEFT:  2.00D  GRAD.:     3.388 HEAT: -93.94214    
 CYCLE:    57 TIME:   0.047 TIME LEFT:  2.00D  GRAD.:     3.169 HEAT: -93.95783    
 CYCLE:    58 TIME:   0.031 TIME LEFT:  2.00D  GRAD.:     3.202 HEAT: -93.96983    
 CYCLE:    59 TIME:   0.039 TIME LEFT:  2.00D  GRAD.:     2.968 HEAT: -93.97819    
 CYCLE:    60 TIME:   0.039 TIME LEFT:  2.00D  GRAD.:     3.250 HEAT: -93.98729    
 CYCLE:    61 TIME:   0.039 TIME LEFT:  2.00D  GRAD.:     2.495 HEAT: -93.99644    
 TEST ON GRADIENT SATISFIED
                    HOWEVER, A COMPONENT OF GRADIENT IS LARGER THAN  0.20

 CYCLE:    62 TIME:   0.039 TIME LEFT:  2.00D  GRAD.:     2.071 HEAT: -94.00533    
 TEST ON GRADIENT SATISFIED
                    HOWEVER, A COMPONENT OF GRADIENT IS LARGER THAN  0.20

 CYCLE:    63 TIME:   0.031 TIME LEFT:  2.00D  GRAD.:     1.923 HEAT: -94.01076    
 TEST ON GRADIENT SATISFIED
                    HOWEVER, A COMPONENT OF GRADIENT IS LARGER THAN  0.20

 CYCLE:    64 TIME:   0.039 TIME LEFT:  2.00D  GRAD.:     2.034 HEAT: -94.01458    
 TEST ON GRADIENT SATISFIED
                    HOWEVER, A COMPONENT OF GRADIENT IS LARGER THAN  0.20

 CYCLE:    65 TIME:   0.039 TIME LEFT:  2.00D  GRAD.:     1.755 HEAT: -94.01794    
 TEST ON GRADIENT SATISFIED
                    HOWEVER, A COMPONENT OF GRADIENT IS LARGER THAN  0.20

 CYCLE:    66 TIME:   0.039 TIME LEFT:  2.00D  GRAD.:     1.708 HEAT: -94.02169    
 TEST ON GRADIENT SATISFIED
                    HOWEVER, A COMPONENT OF GRADIENT IS LARGER THAN  0.20

 CYCLE:    67 TIME:   0.039 TIME LEFT:  2.00D  GRAD.:     1.816 HEAT: -94.02589    
 TEST ON GRADIENT SATISFIED
                    HOWEVER, A COMPONENT OF GRADIENT IS LARGER THAN  0.20

 CYCLE:    68 TIME:   0.031 TIME LEFT:  2.00D  GRAD.:     1.921 HEAT: -94.03030    
 TEST ON GRADIENT SATISFIED
                    HOWEVER, A COMPONENT OF GRADIENT IS LARGER THAN  0.20

 CYCLE:    69 TIME:   0.039 TIME LEFT:  2.00D  GRAD.:     1.770 HEAT: -94.03497    
 TEST ON GRADIENT SATISFIED
                    HOWEVER, A COMPONENT OF GRADIENT IS LARGER THAN  0.20

 CYCLE:    70 TIME:   0.039 TIME LEFT:  2.00D  GRAD.:     1.565 HEAT: -94.03891    
 TEST ON GRADIENT SATISFIED
                    HOWEVER, A COMPONENT OF GRADIENT IS LARGER THAN  0.20

 CYCLE:    71 TIME:   0.031 TIME LEFT:  2.00D  GRAD.:     1.546 HEAT: -94.04226    
 TEST ON GRADIENT SATISFIED
                    HOWEVER, A COMPONENT OF GRADIENT IS LARGER THAN  0.20

 CYCLE:    72 TIME:   0.039 TIME LEFT:  2.00D  GRAD.:     1.648 HEAT: -94.04579    
 TEST ON GRADIENT SATISFIED
                    HOWEVER, A COMPONENT OF GRADIENT IS LARGER THAN  0.20

 CYCLE:    73 TIME:   0.039 TIME LEFT:  2.00D  GRAD.:     1.689 HEAT: -94.04972    
 TEST ON GRADIENT SATISFIED
                    HOWEVER, A COMPONENT OF GRADIENT IS LARGER THAN  0.20

 CYCLE:    74 TIME:   0.031 TIME LEFT:  2.00D  GRAD.:     1.643 HEAT: -94.05353    
 TEST ON GRADIENT SATISFIED
                    HOWEVER, A COMPONENT OF GRADIENT IS LARGER THAN  0.20

 CYCLE:    75 TIME:   0.039 TIME LEFT:  2.00D  GRAD.:     1.704 HEAT: -94.05721    
 TEST ON GRADIENT SATISFIED
                    HOWEVER, A COMPONENT OF GRADIENT IS LARGER THAN  0.20

 CYCLE:    76 TIME:   0.031 TIME LEFT:  2.00D  GRAD.:     1.734 HEAT: -94.06110    
 TEST ON GRADIENT SATISFIED
                    HOWEVER, A COMPONENT OF GRADIENT IS LARGER THAN  0.20

 CYCLE:    77 TIME:   0.031 TIME LEFT:  2.00D  GRAD.:     1.939 HEAT: -94.06585    
 TEST ON GRADIENT SATISFIED
                    HOWEVER, A COMPONENT OF GRADIENT IS LARGER THAN  0.20

 CYCLE:    78 TIME:   0.039 TIME LEFT:  2.00D  GRAD.:     1.835 HEAT: -94.07102    
 TEST ON GRADIENT SATISFIED
                    HOWEVER, A COMPONENT OF GRADIENT IS LARGER THAN  0.20

 CYCLE:    79 TIME:   0.039 TIME LEFT:  2.00D  GRAD.:     1.636 HEAT: -94.07573    
 TEST ON GRADIENT SATISFIED
                    HOWEVER, A COMPONENT OF GRADIENT IS LARGER THAN  0.20

 CYCLE:    80 TIME:   0.031 TIME LEFT:  2.00D  GRAD.:     1.455 HEAT: -94.07907    
 TEST ON GRADIENT SATISFIED
                    HOWEVER, A COMPONENT OF GRADIENT IS LARGER THAN  0.20

 CYCLE:    81 TIME:   0.039 TIME LEFT:  2.00D  GRAD.:     1.303 HEAT: -94.08166    
 TEST ON GRADIENT SATISFIED
                    HOWEVER, A COMPONENT OF GRADIENT IS LARGER THAN  0.20

 CYCLE:    82 TIME:   0.031 TIME LEFT:  2.00D  GRAD.:     1.137 HEAT: -94.08389    
 TEST ON GRADIENT SATISFIED
                    HOWEVER, A COMPONENT OF GRADIENT IS LARGER THAN  0.20

 CYCLE:    83 TIME:   0.031 TIME LEFT:  2.00D  GRAD.:     1.150 HEAT: -94.08594    
 TEST ON GRADIENT SATISFIED
                    HOWEVER, A COMPONENT OF GRADIENT IS LARGER THAN  0.20

 CYCLE:    84 TIME:   0.047 TIME LEFT:  2.00D  GRAD.:     1.187 HEAT: -94.08769    
 TEST ON GRADIENT SATISFIED
                    HOWEVER, A COMPONENT OF GRADIENT IS LARGER THAN  0.20

 CYCLE:    85 TIME:   0.031 TIME LEFT:  2.00D  GRAD.:     1.000 HEAT: -94.08911    
 TEST ON GRADIENT SATISFIED
                    HOWEVER, A COMPONENT OF GRADIENT IS LARGER THAN  0.20

 CYCLE:    86 TIME:   0.031 TIME LEFT:  2.00D  GRAD.:     0.779 HEAT: -94.09037    
 TEST ON GRADIENT SATISFIED
                    HOWEVER, A COMPONENT OF GRADIENT IS LARGER THAN  0.20

 CYCLE:    87 TIME:   0.047 TIME LEFT:  2.00D  GRAD.:     0.670 HEAT: -94.09126    
 TEST ON GRADIENT SATISFIED
                    HOWEVER, A COMPONENT OF GRADIENT IS LARGER THAN  0.20

 CYCLE:    88 TIME:   0.031 TIME LEFT:  2.00D  GRAD.:     0.676 HEAT: -94.09204    
 TEST ON GRADIENT SATISFIED
                    HOWEVER, A COMPONENT OF GRADIENT IS LARGER THAN  0.20

 CYCLE:    89 TIME:   0.031 TIME LEFT:  2.00D  GRAD.:     0.629 HEAT: -94.09270    
 TEST ON GRADIENT SATISFIED
PETERS TEST SATISFIED

 -------------------------------------------------------------------------------
 BFGS PM7 MMOK PRECISE
 C17H14O4S



     PETERS TEST WAS SATISFIED IN BFGS OPTIMIZATION           
     SCF FIELD WAS ACHIEVED                                   


                              PM7 CALCULATION
                                                       MOPAC2012 (Version: 14.208M)
                                                       Mon Mar 23 22:56:57 2015
                                                       No. of days left = 126




          FINAL HEAT OF FORMATION =        -94.09324 KCAL/MOL =    -393.68610 KJ/MOL


          TOTAL ENERGY            =      -3634.10841 EV
          ELECTRONIC ENERGY       =     -25201.39503 EV  POINT GROUP:     C1  
          CORE-CORE REPULSION     =      21567.28662 EV
          COSMO AREA              =        309.30 SQUARE ANGSTROMS
          COSMO VOLUME            =        351.34 CUBIC ANGSTROMS

          GRADIENT NORM           =          0.50497
          IONIZATION POTENTIAL    =          9.555596 EV
          HOMO LUMO ENERGIES (EV) =         -9.556 -1.395
          NO. OF FILLED LEVELS    =         56
          MOLECULAR WEIGHT        =        314.355

          MOLECULAR DIMENSIONS (Angstroms)

            Atom       Atom       Distance
            H    35    O    14    11.22204
            H    33    H    24     8.22658
            H    26    H    29     3.64631


          SCF CALCULATIONS        =        114
 
          WALL-CLOCK TIME         =          4.109 SECONDS
          COMPUTATION TIME        =          7.152 SECONDS




   ATOM   CHEMICAL          X               Y               Z
  NUMBER   SYMBOL      (ANGSTROMS)     (ANGSTROMS)     (ANGSTROMS)
 
     1       C          0.75210464  *   1.55587644  *  -0.98022720  *
     2       C          0.42985455  *   0.23691236  *   1.02634664  *
     3       C         -3.59431720  *  -1.57424010  *   0.66420051  *
     4       C         -1.63249357  *  -1.58399391  *  -0.75380165  *
     5       C          2.09404953  *   1.18246659  *  -1.00387608  *
     6       C          1.77308956  *  -0.12921368  *   0.99992843  *
     7       C         -3.60494296  *  -2.96624756  *   0.64986601  *
     8       C         -1.64788285  *  -2.97521261  *  -0.76450519  *
     9       C         -2.63008457  *  -3.66766315  *  -0.05772777  *
    10       C          5.15892935  *   1.11779248  *   0.84477562  *
    11       C         -0.08403365  *   1.07507808  *   0.03124442  *
    12       C         -2.59776270  *  -0.87582659  *  -0.02704169  *
    13       C          2.60234149  *   0.34776371  *  -0.01214840  *
    14       O         -4.95802201  *   1.11336448  *   0.07369424  *
    15       O          4.72920545  *  -0.06335702  *  -1.44666573  *
    16       O          4.41708557  *  -1.38293044  *   0.68159326  *
    17       C         -1.99118821  *   2.83029715  *   0.04814334  *
    18       C         -1.49691157  *   1.40476550  *   0.02879557  *
    19       C         -2.55785194  *   0.56956905  *   0.01486357  *
    20       C         -3.79993655  *   1.40061240  *   0.04552422  *
    21       O         -3.42328222  *   2.73788235  *   0.05247103  *
    22       S          4.30030983  *  -0.15040741  *  -0.06720971  *
    23       H         -1.71235053  *   3.38357889  *   0.96222581  *
    24       H         -1.71845231  *   3.40963595  *  -0.85105908  *
    25       H          0.35235329  *   2.19984466  *  -1.76133303  *
    26       H         -0.22679113  *  -0.14547403  *   1.80807873  *
    27       H         -4.36697080  *  -1.02720294  *   1.20738849  *
    28       H         -0.86947639  *  -1.04573231  *  -1.31446669  *
    29       H          2.73093206  *   1.53556163  *  -1.82346823  *
    30       H          2.15542261  *  -0.81265175  *   1.76797907  *
    31       H         -4.38039630  *  -3.50665489  *   1.19031525  *
    32       H         -0.89134603  *  -3.52107269  *  -1.32562942  *
    33       H         -2.63842322  *  -4.75612074  *  -0.06399848  *
    34       H          4.78058278  *   1.22792161  *   1.86659161  *
    35       H          6.22846040  *   0.87702815  *   0.93442193  *
    36       H          5.10173101  *   2.09513545  *   0.35344516  *
                             CARTESIAN COORDINATES

   1    C        0.752104638     1.555876439    -0.980227198
   2    C        0.429854549     0.236912357     1.026346635
   3    C       -3.594317200    -1.574240098     0.664200509
   4    C       -1.632493566    -1.583993910    -0.753801653
   5    C        2.094049528     1.182466591    -1.003876077
   6    C        1.773089558    -0.129213683     0.999928434
   7    C       -3.604942958    -2.966247558     0.649866007
   8    C       -1.647882851    -2.975212610    -0.764505195
   9    C       -2.630084568    -3.667663146    -0.057727767
  10    C        5.158929353     1.117792483     0.844775620
  11    C       -0.084033650     1.075078084     0.031244416
  12    C       -2.597762705    -0.875826594    -0.027041686
  13    C        2.602341486     0.347763712    -0.012148395
  14    O       -4.958022008     1.113364478     0.073694237
  15    O        4.729205445    -0.063357018    -1.446665733
  16    O        4.417085571    -1.382930442     0.681593261
  17    C       -1.991188207     2.830297151     0.048143339
  18    C       -1.496911572     1.404765497     0.028795571
  19    C       -2.557851937     0.569569046     0.014863574
  20    C       -3.799936550     1.400612398     0.045524222
  21    O       -3.423282223     2.737882351     0.052471030
  22    S        4.300309826    -0.150407408    -0.067209714
  23    H       -1.712350530     3.383578895     0.962225805
  24    H       -1.718452308     3.409635949    -0.851059077
  25    H        0.352353289     2.199844664    -1.761333034
  26    H       -0.226791129    -0.145474027     1.808078727
  27    H       -4.366970798    -1.027202938     1.207388495
  28    H       -0.869476387    -1.045732309    -1.314466688
  29    H        2.730932061     1.535561627    -1.823468227
  30    H        2.155422613    -0.812651752     1.767979074
  31    H       -4.380396296    -3.506654895     1.190315245
  32    H       -0.891346034    -3.521072694    -1.325629422
  33    H       -2.638423220    -4.756120737    -0.063998482
  34    H        4.780582777     1.227921613     1.866591608
  35    H        6.228460402     0.877028154     0.934421934
  36    H        5.101731009     2.095135446     0.353445164


           Empirical Formula: C17 H14 O4 S  =    36 atoms



      MOLECULAR POINT GROUP   :   C1  


                  EIGENVALUES  
 -32.29803 -31.60736 -31.35318 -30.83349 -30.25035 -28.67357 -27.77322 -27.05126
 -26.62912 -26.11337 -25.83310 -25.42389 -24.67543 -22.73011 -21.99197 -21.61991
 -21.35265 -20.18368 -19.66537 -19.41875 -18.21980 -17.27382 -17.16648 -16.51539
 -16.32816 -16.11426 -15.70815 -15.55405 -15.32797 -15.23945 -15.19126 -15.02827
 -14.84675 -14.72323 -14.55962 -14.34984 -14.11817 -14.02801 -13.89390 -13.82887
 -13.65487 -13.04404 -12.83906 -12.39346 -12.22300 -11.87606 -11.78416 -11.63118
 -11.50505 -11.23128 -11.10286 -10.97726 -10.63683 -10.51889 -10.04278  -9.55560
  -1.39536  -0.66218  -0.54540   0.04702   0.14143   0.92324   1.19994   1.31167
   1.55323   2.17036   2.48505   2.61594   2.68020   2.74516   2.89846   3.34678
   3.55892   3.65717   3.96349   4.02801   4.12072   4.19160   4.30007   4.37528
   4.45771   4.54077   4.58041   4.58749   4.62308   4.63733   4.80950   4.81016
   4.86329   4.88120   4.99802   5.05398   5.08287   5.09574   5.16797   5.41093
   5.44919   5.48208   5.58586   5.70465   5.79792   5.94873   5.98964   6.02505
   6.08213   6.14680   6.59469


              NET ATOMIC CHARGES AND DIPOLE CONTRIBUTIONS

  ATOM NO.   TYPE          CHARGE      No. of ELECS.   s-Pop       p-Pop       d-Pop       
    1          C          -0.176164        4.1762     1.08299     3.09318
    2          C          -0.163760        4.1638     1.08618     3.07758
    3          C          -0.118155        4.1182     1.08803     3.03013
    4          C          -0.141842        4.1418     1.08665     3.05519
    5          C          -0.074717        4.0747     1.08936     2.98536
    6          C          -0.073160        4.0732     1.09031     2.98285
    7          C          -0.150628        4.1506     1.08301     3.06761
    8          C          -0.151431        4.1514     1.08274     3.06869
    9          C          -0.125148        4.1251     1.08542     3.03973
   10          C          -0.756203        4.7562     1.09419     3.66201
   11          C           0.016583        3.9834     1.05987     2.92355
   12          C          -0.021084        4.0211     1.05012     2.97096
   13          C          -0.385561        4.3856     1.12139     3.26418
   14          O          -0.404812        6.4048     1.87552     4.52930
   15          O          -0.909044        6.9090     1.89341     5.01564
   16          O          -0.905579        6.9056     1.89341     5.01217
   17          C          -0.055663        4.0557     1.09466     2.96100
   18          C          -0.042318        4.0423     1.08711     2.95521
   19          C          -0.140157        4.1402     1.08473     3.05542
   20          C           0.579111        3.4209     1.11870     2.30219
   21          O          -0.375202        6.3752     1.88332     4.49188
   22          S           2.232033        3.7680     1.19557     2.05919     0.51320
   23          H           0.162866        0.8371     0.83713
   24          H           0.162296        0.8377     0.83770
   25          H           0.159378        0.8406     0.84062
   26          H           0.167156        0.8328     0.83284
   27          H           0.169722        0.8303     0.83028
   28          H           0.155929        0.8441     0.84407
   29          H           0.172898        0.8271     0.82710
   30          H           0.176809        0.8232     0.82319
   31          H           0.154018        0.8460     0.84598
   32          H           0.154896        0.8451     0.84510
   33          H           0.149919        0.8501     0.85008
   34          H           0.181145        0.8189     0.81886
   35          H           0.194296        0.8057     0.80570
   36          H           0.181574        0.8184     0.81843
 DIPOLE           X         Y         Z       TOTAL
 POINT-CHG.     2.843     3.039     2.571     4.891
 HYBRID        -0.445     0.454    -0.022     0.636
 SUM            2.398     3.493     2.549     4.944


          ATOMIC ORBITAL ELECTRON POPULATIONS

    Atom      s        px        py        pz      x^2-y^2     xz        z^2       yz        xy
    1  C   1.08299   1.00108   1.04867   1.04342
    2  C   1.08618   1.02663   1.00485   1.04610
    3  C   1.08803   1.01997   1.00858   1.00158
    4  C   1.08665   1.02790   1.01379   1.01350
    5  C   1.08936   1.01303   0.95867   1.01366
    6  C   1.09031   0.98540   0.98332   1.01413
    7  C   1.08301   1.03912   1.00732   1.02117
    8  C   1.08274   1.03949   1.00545   1.02375
    9  C   1.08542   0.98348   1.07686   0.97939
   10  C   1.09419   1.23783   1.21209   1.21210
   11  C   1.05987   0.95301   0.98270   0.98784
   12  C   1.05012   1.01270   0.93536   1.02291
   13  C   1.12139   1.13645   1.08147   1.04625
   14  O   1.87552   1.27107   1.77969   1.47853
   15  O   1.89341   1.79769   1.81504   1.40291
   16  O   1.89341   1.83237   1.50173   1.67808
   17  C   1.09466   0.79718   1.01093   1.15290
   18  C   1.08711   0.98693   0.99767   0.97061
   19  C   1.08473   0.99971   1.00484   1.05088
   20  C   1.11870   0.83700   0.77267   0.69252
   21  O   1.88332   1.25823   1.37507   1.85858
   22  S   1.19557   0.72063   0.67967   0.65889   0.08147   0.07649   0.13266   0.14875   0.07383
   23  H   0.83713
   24  H   0.83770
   25  H   0.84062
   26  H   0.83284
   27  H   0.83028
   28  H   0.84407
   29  H   0.82710
   30  H   0.82319
   31  H   0.84598
   32  H   0.84510
   33  H   0.85008
   34  H   0.81886
   35  H   0.80570
   36  H   0.81843



 TOTAL JOB TIME:             4.11 SECONDS

 == MOPAC DONE ==
