 *******************************************************************************
 ** Site#: 6541         For non-commercial use only     Version 14.208M 64BITS**
 *******************************************************************************
 ** Cite this work as:                                                        **
 **                                                                           **
 ** (a) MOPAC2012, James J. P. Stewart, Stewart Computational Chemistry,      **
 **  Version 14.208M web: HTTP://OpenMOPAC.net         Days remaining: 126    **
 **                                                                           **
 **                                 AND                                       **
 **                                                                           **
 ** (b) Maia, J.D.C., et al., J. Chem. Theory Comput. 2012, 8, 3072-3081.     **
 **                DOI: 10.1021/ct3004645.                                    **
 *******************************************************************************
 **                                                                           **
 **                                MOPAC2012                                  **
 **                                                                           **
 *******************************************************************************

                            PM7 CALCULATION RESULTS


 *******************************************************************************
 *  CALCULATION DONE:                                Mon Mar 23 23:17:37 2015  *
 *  PM7        - The PM7 Hamiltonian to be used
 *  MMOK       - APPLY MM CORRECTION TO CONH BARRIER
 *  PRECISE    - CRITERIA TO BE INCREASED BY 100 TIMES
 *  BFGS       - USE THE BFGS GEOMETRY OPTIMIZER
 *  T=         - A TIME OF 172800.0 SECONDS REQUESTED
 *  DUMP=N     - RESTART FILE WRITTEN EVERY  7200.000 SECONDS
 *******************************************************************************
 BFGS PM7 MMOK PRECISE
 C4H10Si

   ATOM   CHEMICAL          X               Y               Z
  NUMBER   SYMBOL      (ANGSTROMS)     (ANGSTROMS)     (ANGSTROMS)
 
     1      Si          1.22400000  *  -0.00440000  *  -0.03310000  *
     2       H          2.16640000  *  -0.11430000  *   1.10920000  *
     3       H          1.95210000  *   0.11150000  *  -1.32210000  *
     4       C         -0.00450000  *  -1.44490000  *  -0.05860000  *
     5       C         -1.34250000  *  -0.71000000  *   0.21830000  *
     6       C         -1.29980000  *   0.73750000  *  -0.29270000  *
     7       C          0.00650000  *   1.42970000  *   0.20750000  *
     8       H         -0.01890000  *  -1.92990000  *  -1.03470000  *
     9       H          0.21820000  *  -2.16330000  *   0.73030000  *
    10       H         -2.15200000  *  -1.24160000  *  -0.28190000  *
    11       H         -1.53130000  *  -0.70430000  *   1.29180000  *
    12       H         -1.31600000  *   0.73870000  *  -1.38260000  *
    13       H         -2.16630000  *   1.28140000  *   0.08340000  *
    14       H         -0.07030000  *   1.71410000  *   1.25690000  *
    15       H          0.26780000  *   2.28480000  *  -0.41590000  *
 


          CARTESIAN COORDINATES 

    NO.       ATOM         X         Y         Z

     1        Si        1.2240   -0.0044   -0.0331
     2         H        2.1664   -0.1143    1.1092
     3         H        1.9521    0.1115   -1.3221
     4         C       -0.0045   -1.4449   -0.0586
     5         C       -1.3425   -0.7100    0.2183
     6         C       -1.2998    0.7375   -0.2927
     7         C        0.0065    1.4297    0.2075
     8         H       -0.0189   -1.9299   -1.0347
     9         H        0.2182   -2.1633    0.7303
    10         H       -2.1520   -1.2416   -0.2819
    11         H       -1.5313   -0.7043    1.2918
    12         H       -1.3160    0.7387   -1.3826
    13         H       -2.1663    1.2814    0.0834
    14         H       -0.0703    1.7141    1.2569
    15         H        0.2678    2.2848   -0.4159

     ===================== shared-memory parallel CPU Section ======================
     **                                                                           **
     **  MOPAC calculations will run in shared-memory parallel CPUs               **
     **                                                                           **
     **  Number of Threads =  2                                                   **
     **                                                                           **
     **                                                                           **
     **  For information on this work, see:                                       **
     **                                                                           **
     **  Maia, J.D.C., et al., J. Chem. Theory Comput. 2012, 8, 3072-3081.        **
     **        DOI: 10.1021/ct3004645.                                            **
     **                                                                           **
     ===================== shared-memory parallel CPU Section ======================
      


 General Reference for PM7:
 "Optimization of Parameters for Semiempirical Methods VI: More Modifications to the 
 NDDO Approximations and Re-optimization of Parameters", J. J. P. Stewart, J. Mol. Mod., 1:32, 19 (2013)
 http://www.springerlink.com/openurl.asp?genre=article&id=doi:10.1007/s00894-012-1667-x

           Empirical Formula: C4 H10 Si  =    15 atoms



      MOLECULAR POINT GROUP   :   C1  


      RHF CALCULATION, NO. OF DOUBLY OCCUPIED LEVELS =   15

      Geometry optimization using BFGS
 CYCLE:     1 TIME:   0.016 TIME LEFT:  2.00D  GRAD.:    21.820 HEAT: -16.14807    
 CYCLE:     2 TIME:   0.008 TIME LEFT:  2.00D  GRAD.:    28.815 HEAT: -16.34757    
 CYCLE:     3 TIME:   0.008 TIME LEFT:  2.00D  GRAD.:    13.617 HEAT: -16.73980    
 CYCLE:     4 TIME:   0.016 TIME LEFT:  2.00D  GRAD.:     9.904 HEAT: -16.89078    
 CYCLE:     5 TIME:   0.008 TIME LEFT:  2.00D  GRAD.:     8.025 HEAT: -16.97212    
 CYCLE:     6 TIME:   0.008 TIME LEFT:  2.00D  GRAD.:     8.383 HEAT: -17.03039    
 CYCLE:     7 TIME:   0.008 TIME LEFT:  2.00D  GRAD.:     6.391 HEAT: -17.10151    
 CYCLE:     8 TIME:   0.008 TIME LEFT:  2.00D  GRAD.:     4.996 HEAT: -17.16002    
 CYCLE:     9 TIME:   0.000 TIME LEFT:  2.00D  GRAD.:     4.552 HEAT: -17.20925    
 CYCLE:    10 TIME:   0.008 TIME LEFT:  2.00D  GRAD.:     3.808 HEAT: -17.26495    
 CYCLE:    11 TIME:   0.008 TIME LEFT:  2.00D  GRAD.:     3.576 HEAT: -17.29460    
 CYCLE:    12 TIME:   0.008 TIME LEFT:  2.00D  GRAD.:     3.085 HEAT: -17.31810    
 CYCLE:    13 TIME:   0.008 TIME LEFT:  2.00D  GRAD.:     4.400 HEAT: -17.35569    
 CYCLE:    14 TIME:   0.016 TIME LEFT:  2.00D  GRAD.:     3.674 HEAT: -17.39695    
 CYCLE:    15 TIME:   0.008 TIME LEFT:  2.00D  GRAD.:     3.431 HEAT: -17.43085    
 CYCLE:    16 TIME:   0.008 TIME LEFT:  2.00D  GRAD.:     2.857 HEAT: -17.44771    
 CYCLE:    17 TIME:   0.008 TIME LEFT:  2.00D  GRAD.:     2.090 HEAT: -17.46092    
 CYCLE:    18 TIME:   0.008 TIME LEFT:  2.00D  GRAD.:     1.427 HEAT: -17.46927    
 TEST ON GRADIENT SATISFIED
                    HOWEVER, A COMPONENT OF GRADIENT IS LARGER THAN  0.20

 CYCLE:    19 TIME:   0.008 TIME LEFT:  2.00D  GRAD.:     0.844 HEAT: -17.47255    
 TEST ON GRADIENT SATISFIED
                    HOWEVER, A COMPONENT OF GRADIENT IS LARGER THAN  0.20

 CYCLE:    20 TIME:   0.008 TIME LEFT:  2.00D  GRAD.:     0.663 HEAT: -17.47410    
 TEST ON GRADIENT SATISFIED
                    HOWEVER, A COMPONENT OF GRADIENT IS LARGER THAN  0.20

 CYCLE:    21 TIME:   0.008 TIME LEFT:  2.00D  GRAD.:     0.644 HEAT: -17.47509    
 TEST ON GRADIENT SATISFIED
                    HOWEVER, A COMPONENT OF GRADIENT IS LARGER THAN  0.20

 CYCLE:    22 TIME:   0.008 TIME LEFT:  2.00D  GRAD.:     0.612 HEAT: -17.47604    
 TEST ON GRADIENT SATISFIED
                    HOWEVER, A COMPONENT OF GRADIENT IS LARGER THAN  0.20

           THERE HAVE BEEN 3 ATTEMPTS TO REDUCE THE GRADIENT.
           DURING THESE ATTEMPTS THE ENERGY DROPPED BY LESS THAN 0.0 KCAL/MOLE
           FURTHER CALCULATION IS NOT JUSTIFIED AT THIS TIME.

 -------------------------------------------------------------------------------
 BFGS PM7 MMOK PRECISE
 C4H10Si



     GRADIENT TEST NOT PASSED, BUT FURTHER WORK NOT JUSTIFIED 
     SCF FIELD WAS ACHIEVED                                   


                              PM7 CALCULATION
                                                       MOPAC2012 (Version: 14.208M)
                                                       Mon Mar 23 23:17:38 2015
                                                       No. of days left = 126




          FINAL HEAT OF FORMATION =        -17.47696 KCAL/MOL =     -73.12361 KJ/MOL


          TOTAL ENERGY            =       -728.11933 EV
          ELECTRONIC ENERGY       =      -3056.60394 EV  POINT GROUP:     C2  
          CORE-CORE REPULSION     =       2328.48461 EV
          COSMO AREA              =        133.54 SQUARE ANGSTROMS
          COSMO VOLUME            =        129.42 CUBIC ANGSTROMS

          GRADIENT NORM           =          0.57672
          IONIZATION POTENTIAL    =         10.777931 EV
          HOMO LUMO ENERGIES (EV) =        -10.778  1.460
          NO. OF FILLED LEVELS    =         15
          MOLECULAR WEIGHT        =         86.209

          MOLECULAR DIMENSIONS (Angstroms)

            Atom       Atom       Distance
            H    10    H     2     4.70141
            H    15    H     9     4.56932
            H    11    H     3     3.39612


          SCF CALCULATIONS        =         31
 
          WALL-CLOCK TIME         =          0.211 SECONDS
          COMPUTATION TIME        =          0.406 SECONDS




   ATOM   CHEMICAL          X               Y               Z
  NUMBER   SYMBOL      (ANGSTROMS)     (ANGSTROMS)     (ANGSTROMS)
 
     1      Si          1.25084849  *  -0.00888925  *  -0.00802263  *
     2       H          2.15094074  *  -0.08889707  *   1.12800408  *
     3       H          2.01673883  *   0.07022310  *  -1.23921983  *
     4       C          0.01871979  *  -1.41702402  *  -0.05111566  *
     5       C         -1.35253705  *  -0.73950232  *   0.18083467  *
     6       C         -1.32378278  *   0.75930301  *  -0.20922453  *
     7       C          0.03448627  *   1.40170740  *   0.15267535  *
     8       H          0.03114661  *  -1.94813367  *  -1.02676053  *
     9       H          0.20603691  *  -2.19923831  *   0.71287940  *
    10       H         -2.13838952  *  -1.26126004  *  -0.39857540  *
    11       H         -1.65953886  *  -0.84223226  *   1.24172525  *
    12       H         -1.53815419  *   0.87174742  *  -1.29190318  *
    13       H         -2.14711736  *   1.29547108  *   0.30139231  *
    14       H          0.00887735  *   1.80163088  *   1.19030942  *
    15       H          0.25277629  *   2.27220306  *  -0.49832528  *
                             CARTESIAN COORDINATES

   1   Si        1.250848494    -0.008889253    -0.008022634
   2    H        2.150940744    -0.088897068     1.128004083
   3    H        2.016738833     0.070223097    -1.239219831
   4    C        0.018719794    -1.417024020    -0.051115659
   5    C       -1.352537051    -0.739502316     0.180834669
   6    C       -1.323782781     0.759303011    -0.209224527
   7    C        0.034486268     1.401707398     0.152675348
   8    H        0.031146610    -1.948133670    -1.026760531
   9    H        0.206036911    -2.199238310     0.712879397
  10    H       -2.138389517    -1.261260045    -0.398575401
  11    H       -1.659538860    -0.842232263     1.241725249
  12    H       -1.538154193     0.871747422    -1.291903176
  13    H       -2.147117364     1.295471077     0.301392306
  14    H        0.008877348     1.801630877     1.190309420
  15    H        0.252776287     2.272203064    -0.498325285


           Empirical Formula: C4 H10 Si  =    15 atoms



      MOLECULAR POINT GROUP   :   C2  


                  EIGENVALUES  
 -29.39436 -25.01782 -22.56004 -18.94987 -16.26717 -16.05683 -15.36074 -14.36543
 -13.23313 -12.40428 -12.16353 -11.57671 -11.20479 -10.89039 -10.77793   1.45994
   2.37807   3.00852   4.14108   4.36229   4.88720   5.41996   5.63826   5.99276
   6.09492   6.41472   6.58306   6.67813   6.70912   8.34656  22.09071  22.52895
  22.87852  22.93183  23.47703


              NET ATOMIC CHARGES AND DIPOLE CONTRIBUTIONS

  ATOM NO.   TYPE          CHARGE      No. of ELECS.   s-Pop       p-Pop       d-Pop       
    1         Si           0.096068        3.9039     0.86365     2.86073     0.17955
    2          H           0.043687        0.9563     0.95631
    3          H           0.043834        0.9562     0.95617
    4          C          -0.429384        4.4294     1.06109     3.36830
    5          C          -0.235933        4.2359     1.05598     3.17995
    6          C          -0.236401        4.2364     1.05572     3.18068
    7          C          -0.428008        4.4280     1.06087     3.36714
    8          H           0.155745        0.8443     0.84425
    9          H           0.153879        0.8461     0.84612
   10          H           0.129143        0.8709     0.87086
   11          H           0.133422        0.8666     0.86658
   12          H           0.134463        0.8655     0.86554
   13          H           0.128990        0.8710     0.87101
   14          H           0.156802        0.8432     0.84320
   15          H           0.153693        0.8463     0.84631
 DIPOLE           X         Y         Z       TOTAL
 POINT-CHG.     0.035     0.004    -0.015     0.038
 HYBRID        -0.835    -0.011     0.051     0.837
 SUM           -0.800    -0.007     0.036     0.801


          ATOMIC ORBITAL ELECTRON POPULATIONS

    Atom      s        px        py        pz      x^2-y^2     xz        z^2       yz        xy
    1 Si   0.86365   0.94026   0.85780   1.06267   0.03801   0.04853   0.02724   0.01968   0.04610
    2  H   0.95631
    3  H   0.95617
    4  C   1.06109   1.07280   1.13310   1.16240
    5  C   1.05598   1.02813   1.00843   1.14339
    6  C   1.05572   1.03110   1.01019   1.13938
    7  C   1.06087   1.07518   1.13402   1.15794
    8  H   0.84425
    9  H   0.84612
   10  H   0.87086
   11  H   0.86658
   12  H   0.86554
   13  H   0.87101
   14  H   0.84320
   15  H   0.84631



 TOTAL JOB TIME:             0.21 SECONDS

 == MOPAC DONE ==
