 *******************************************************************************
 ** Site#: 6541         For non-commercial use only     Version 14.208M 64BITS**
 *******************************************************************************
 ** Cite this work as:                                                        **
 **                                                                           **
 ** (a) MOPAC2012, James J. P. Stewart, Stewart Computational Chemistry,      **
 **  Version 14.208M web: HTTP://OpenMOPAC.net         Days remaining: 126    **
 **                                                                           **
 **                                 AND                                       **
 **                                                                           **
 ** (b) Maia, J.D.C., et al., J. Chem. Theory Comput. 2012, 8, 3072-3081.     **
 **                DOI: 10.1021/ct3004645.                                    **
 *******************************************************************************
 **                                                                           **
 **                                MOPAC2012                                  **
 **                                                                           **
 *******************************************************************************

                            PM7 CALCULATION RESULTS


 *******************************************************************************
 *  CALCULATION DONE:                                Mon Mar 23 23:17:52 2015  *
 *  PM7        - The PM7 Hamiltonian to be used
 *  MMOK       - APPLY MM CORRECTION TO CONH BARRIER
 *  PRECISE    - CRITERIA TO BE INCREASED BY 100 TIMES
 *  BFGS       - USE THE BFGS GEOMETRY OPTIMIZER
 *  T=         - A TIME OF 172800.0 SECONDS REQUESTED
 *  DUMP=N     - RESTART FILE WRITTEN EVERY  7200.000 SECONDS
 *******************************************************************************
 BFGS PM7 MMOK PRECISE
 C2H4S

   ATOM   CHEMICAL          X               Y               Z
  NUMBER   SYMBOL      (ANGSTROMS)     (ANGSTROMS)     (ANGSTROMS)
 
     1       S          0.78870000  *   0.00000000  *   0.00000000  *
     2       C         -0.85610000  *  -0.76500000  *   0.00000000  *
     3       C         -0.85610000  *   0.76500000  *   0.00000000  *
     4       H         -1.17050000  *  -1.25790000  *  -0.92000000  *
     5       H         -1.17050000  *  -1.25790000  *   0.92000000  *
     6       H         -1.17050000  *   1.25790000  *   0.92000000  *
     7       H         -1.17050000  *   1.25790000  *  -0.92000000  *
 


          CARTESIAN COORDINATES 

    NO.       ATOM         X         Y         Z

     1         S        0.7887    0.0000    0.0000
     2         C       -0.8561   -0.7650    0.0000
     3         C       -0.8561    0.7650    0.0000
     4         H       -1.1705   -1.2579   -0.9200
     5         H       -1.1705   -1.2579    0.9200
     6         H       -1.1705    1.2579    0.9200
     7         H       -1.1705    1.2579   -0.9200

     ===================== shared-memory parallel CPU Section ======================
     **                                                                           **
     **  MOPAC calculations will run in shared-memory parallel CPUs               **
     **                                                                           **
     **  Number of Threads =  2                                                   **
     **                                                                           **
     **                                                                           **
     **  For information on this work, see:                                       **
     **                                                                           **
     **  Maia, J.D.C., et al., J. Chem. Theory Comput. 2012, 8, 3072-3081.        **
     **        DOI: 10.1021/ct3004645.                                            **
     **                                                                           **
     ===================== shared-memory parallel CPU Section ======================
      


 General Reference for PM7:
 "Optimization of Parameters for Semiempirical Methods VI: More Modifications to the 
 NDDO Approximations and Re-optimization of Parameters", J. J. P. Stewart, J. Mol. Mod., 1:32, 19 (2013)
 http://www.springerlink.com/openurl.asp?genre=article&id=doi:10.1007/s00894-012-1667-x

           Empirical Formula: C2 H4 S  =     7 atoms



      MOLECULAR POINT GROUP   :   C2v 


      RHF CALCULATION, NO. OF DOUBLY OCCUPIED LEVELS =    9

      Geometry optimization using BFGS
 CYCLE:     1 TIME:   0.008 TIME LEFT:  2.00D  GRAD.:    19.050 HEAT:  23.94244    
 CYCLE:     2 TIME:   0.000 TIME LEFT:  2.00D  GRAD.:    11.990 HEAT:  23.73592    
 CYCLE:     3 TIME:   0.008 TIME LEFT:  2.00D  GRAD.:     6.071 HEAT:  23.66213    
 CYCLE:     4 TIME:   0.008 TIME LEFT:  2.00D  GRAD.:     2.729 HEAT:  23.64594    
 CYCLE:     5 TIME:   0.000 TIME LEFT:  2.00D  GRAD.:     2.869 HEAT:  23.64290    
 CYCLE:     6 TIME:   0.008 TIME LEFT:  2.00D  GRAD.:     1.361 HEAT:  23.63545    
 CYCLE:     7 TIME:   0.000 TIME LEFT:  2.00D  GRAD.:     1.556 HEAT:  23.63523    
 TEST ON GRADIENT SATISFIED
                    HOWEVER, A COMPONENT OF GRADIENT IS LARGER THAN  0.20

 CYCLE:     8 TIME:   0.000 TIME LEFT:  2.00D  GRAD.:     0.473 HEAT:  23.63404    
 TEST ON GRADIENT SATISFIED
PETERS TEST SATISFIED

 -------------------------------------------------------------------------------
 BFGS PM7 MMOK PRECISE
 C2H4S



     PETERS TEST WAS SATISFIED IN BFGS OPTIMIZATION           
     SCF FIELD WAS ACHIEVED                                   


                              PM7 CALCULATION
                                                       MOPAC2012 (Version: 14.208M)
                                                       Mon Mar 23 23:17:52 2015
                                                       No. of days left = 126




          FINAL HEAT OF FORMATION =         23.63379 KCAL/MOL =      98.88376 KJ/MOL


          TOTAL ENERGY            =       -475.53588 EV
          ELECTRONIC ENERGY       =      -1323.58023 EV  POINT GROUP:     C2v 
          CORE-CORE REPULSION     =        848.04435 EV
          COSMO AREA              =         94.11 SQUARE ANGSTROMS
          COSMO VOLUME            =         78.45 CUBIC ANGSTROMS

          GRADIENT NORM           =          0.27407
          IONIZATION POTENTIAL    =          8.927361 EV
          HOMO LUMO ENERGIES (EV) =         -8.927 -0.616
          NO. OF FILLED LEVELS    =          9
          MOLECULAR WEIGHT        =         60.114

          MOLECULAR DIMENSIONS (Angstroms)

            Atom       Atom       Distance
            H     6    H     4     3.12831
            H     7    H     5     2.93260
            S     1    H     5     2.01312


          SCF CALCULATIONS        =         16
 
          WALL-CLOCK TIME         =          0.047 SECONDS
          COMPUTATION TIME        =          0.093 SECONDS




   ATOM   CHEMICAL          X               Y               Z
  NUMBER   SYMBOL      (ANGSTROMS)     (ANGSTROMS)     (ANGSTROMS)
 
     1       S          0.81693904  *   0.00320748  *   0.01493977  *
     2       C         -0.87936713  *  -0.74245171  *   0.00932758  *
     3       C         -0.88128688  *   0.74481577  *   0.00925002  *
     4       H         -1.19153064  *  -1.28219708  *  -0.88551919  *
     5       H         -1.19732378  *  -1.28374898  *   0.90081744  *
     6       H         -1.19983221  *   1.28576999  *   0.90104985  *
     7       H         -1.19501113  *   1.28379386  *  -0.88540871  *
                             CARTESIAN COORDINATES

   1    S        0.816939041     0.003207482     0.014939768
   2    C       -0.879367130    -0.742451709     0.009327580
   3    C       -0.881286883     0.744815771     0.009250018
   4    H       -1.191530645    -1.282197084    -0.885519190
   5    H       -1.197323780    -1.283748977     0.900817441
   6    H       -1.199832214     1.285769993     0.901049853
   7    H       -1.195011131     1.283793860    -0.885408710


           Empirical Formula: C2 H4 S  =     7 atoms



      MOLECULAR POINT GROUP   :   C2v 


                  EIGENVALUES  
 -30.18564 -21.47426 -21.20423 -16.52829 -15.08588 -13.01823 -11.63249 -11.03488
  -8.92736  -0.61642  -0.08907   0.73096   0.74527   0.79637   1.37784   1.56989
   3.64108   4.83809   5.49015   5.68415   5.76361


              NET ATOMIC CHARGES AND DIPOLE CONTRIBUTIONS

  ATOM NO.   TYPE          CHARGE      No. of ELECS.   s-Pop       p-Pop       d-Pop       
    1          S          -0.072171        6.0722     1.93863     4.03657     0.09698
    2          C          -0.300072        4.3001     1.07847     3.22160
    3          C          -0.300064        4.3001     1.07851     3.22155
    4          H           0.168067        0.8319     0.83193
    5          H           0.168082        0.8319     0.83192
    6          H           0.168113        0.8319     0.83189
    7          H           0.168047        0.8320     0.83195
 DIPOLE           X         Y         Z       TOTAL
 POINT-CHG.    -1.608    -0.001    -0.007     1.608
 HYBRID        -0.100    -0.000    -0.000     0.100
 SUM           -1.708    -0.002    -0.007     1.708


          ATOMIC ORBITAL ELECTRON POPULATIONS

    Atom      s        px        py        pz      x^2-y^2     xz        z^2       yz        xy
    1  S   1.93863   0.88668   1.15682   1.99306   0.01216   0.00554   0.01588   0.00129   0.06210
    2  C   1.07847   1.00503   1.02910   1.18748
    3  C   1.07851   1.00483   1.02926   1.18747
    4  H   0.83193
    5  H   0.83192
    6  H   0.83189
    7  H   0.83195



 TOTAL JOB TIME:             0.05 SECONDS

 == MOPAC DONE ==
