 *******************************************************************************
 ** Site#: 6541         For non-commercial use only     Version 14.208M 64BITS**
 *******************************************************************************
 ** Cite this work as:                                                        **
 **                                                                           **
 ** (a) MOPAC2012, James J. P. Stewart, Stewart Computational Chemistry,      **
 **  Version 14.208M web: HTTP://OpenMOPAC.net         Days remaining: 172    **
 **                                                                           **
 **                                 AND                                       **
 **                                                                           **
 ** (b) Maia, J.D.C., et al., J. Chem. Theory Comput. 2012, 8, 3072-3081.     **
 **                DOI: 10.1021/ct3004645.                                    **
 *******************************************************************************
 **                                                                           **
 **                                MOPAC2012                                  **
 **                                                                           **
 *******************************************************************************

                            PM7 CALCULATION RESULTS


 *******************************************************************************
 *  CALCULATION DONE:                                Thu Feb  5 17:23:10 2015  *
 *  PM7        - The PM7 Hamiltonian to be used
 *  MMOK       - APPLY MM CORRECTION TO CONH BARRIER
 *  PRECISE    - CRITERIA TO BE INCREASED BY 100 TIMES
 *  BFGS       - USE THE BFGS GEOMETRY OPTIMIZER
 *  T=         - A TIME OF 172800.0 SECONDS REQUESTED
 *  DUMP=N     - RESTART FILE WRITTEN EVERY  7200.000 SECONDS
 *******************************************************************************
 BFGS PM7 PRECISE MMOK
 /Users/ghutchis/Desktop/esters/isoamyl_acetate.pdb

  ATOM    CHEMICAL      BOND LENGTH      BOND ANGLE     TWIST ANGLE 
 NUMBER    SYMBOL       (ANGSTROMS)      (DEGREES)       (DEGREES) 
   (I)                     NA:I           NB:NA:I       NC:NB:NA:I       NA    NB    NC 
     1       C          0.00000000  *    0.0000000  *    0.0000000  *     0     0     0
     2       C          1.49492800  *    0.0000000  *    0.0000000  *     1     0     0
     3       H          1.10961700  *  109.4751610  *    0.0000000  *     1     2     0
     4       H          1.11020900  *  109.5068090  * -119.7455000  *     1     2     3
     5       H          1.11183100  *  110.8165310  *  120.0930070  *     1     2     3
     6       O          1.35743300  *  119.2981710  *   59.9047120  *     2     1     3
     7       C          1.38114900  *  123.3052020  * -179.2795240  *     6     2     1
     8       C          1.53234800  *  109.2666440  *  179.6583940  *     7     6     2
     9       H          1.11274500  *  109.3912040  *   60.0172890  *     7     6     2
    10       H          1.11008300  *  109.0575540  *  -59.5595270  *     7     6     2
    11       C          1.54688800  *  113.5962160  * -176.4743440  *     8     7     6
    12       H          1.11243400  *  109.2051330  *   60.3107010  *     8     7     6
    13       H          1.11256500  *  107.3602870  *  -56.7793410  *     8     7     6
    14       C          1.53425300  *  109.5159380  *  175.2861360  *    11     8     7
    15       O          1.22295200  *  119.8597890  * -120.0313500  *     2     1     3
    16       H          1.11066200  *  110.3330990  *  -58.5970120  *    14    11     8
    17       H          1.11134400  *  110.3172250  * -177.7060090  *    14    11     8
    18       H          1.11187100  *  110.8010430  *   61.8461210  *    14    11     8
    19       C          1.53674300  *  112.5348270  *  -62.7537680  *    11     8     7
    20       H          1.11209300  *  108.8365920  *   57.6490900  *    11     8     7
    21       H          1.11145200  *  110.6585660  *  -59.0662670  *    19    11     8
    22       H          1.11062000  *  110.0349990  * -179.2286460  *    19    11     8
    23       H          1.10812100  *  111.2610500  *   62.3865760  *    19    11     8
 


          CARTESIAN COORDINATES 

    NO.       ATOM         X         Y         Z

     1         C        0.0000    0.0000    0.0000
     2         C        1.4949    0.0000    0.0000
     3         H       -0.3699    1.0461    0.0000
     4         H       -0.3707   -0.5192    0.9086
     5         H       -0.3951   -0.5211   -0.8992
     6         O        2.1592    0.5936    1.0242
     7         C        3.5369    0.6546    1.1005
     8         C        3.9401    1.3993    2.3775
     9         H        3.9321    1.2010    0.2153
    10         H        3.9455   -0.3775    1.1086
    11         C        5.4671    1.6015    2.5205
    12         H        3.5441    0.8516    3.2611
    13         H        3.4569    2.4009    2.3444
    14         C        5.7571    2.4540    3.7626
    15         O        2.1038   -0.5308   -0.9182
    16         H        5.2468    3.4373    3.6836
    17         H        6.8485    2.6424    3.8551
    18         H        5.4040    1.9420    4.6842
    19         C        6.2302    0.2716    2.6234
    20         H        5.8405    2.1565    1.6321
    21         H        5.8780   -0.3159    3.4988
    22         H        7.3178    0.4648    2.7383
    23         H        6.1047   -0.3358    1.7051

     ===================== shared-memory parallel CPU Section ======================
     **                                                                           **
     **  MOPAC calculations will run in shared-memory parallel CPUs               **
     **                                                                           **
     **  Number of Threads =  2                                                   **
     **                                                                           **
     **                                                                           **
     **  For information on this work, see:                                       **
     **                                                                           **
     **  Maia, J.D.C., et al., J. Chem. Theory Comput. 2012, 8, 3072-3081.        **
     **        DOI: 10.1021/ct3004645.                                            **
     **                                                                           **
     ===================== shared-memory parallel CPU Section ======================
      


 General Reference for PM7:
 "Optimization of Parameters for Semiempirical Methods VI: More Modifications to the 
 NDDO Approximations and Re-optimization of Parameters", J. J. P. Stewart, J. Mol. Mod., 1:32, 19 (2013)
 http://www.springerlink.com/openurl.asp?genre=article&id=doi:10.1007/s00894-012-1667-x

           Empirical Formula: C7 H14 O2  =    23 atoms



      MOLECULAR POINT GROUP   :   C1  


      RHF CALCULATION, NO. OF DOUBLY OCCUPIED LEVELS =   27

      Geometry optimization using BFGS
 CYCLE:     1 TIME:   0.012 TIME LEFT:  2.00D  GRAD.:    42.486 HEAT: -117.8678    
 CYCLE:     2 TIME:   0.008 TIME LEFT:  2.00D  GRAD.:    39.322 HEAT: -118.8238    
 CYCLE:     3 TIME:   0.012 TIME LEFT:  2.00D  GRAD.:    16.849 HEAT: -119.6527    
 CYCLE:     4 TIME:   0.008 TIME LEFT:  2.00D  GRAD.:     9.856 HEAT: -119.8128    
 CYCLE:     5 TIME:   0.008 TIME LEFT:  2.00D  GRAD.:     2.684 HEAT: -119.9348    
 CYCLE:     6 TIME:   0.004 TIME LEFT:  2.00D  GRAD.:     2.266 HEAT: -119.9389    
 TEST ON GRADIENT SATISFIED
                    HOWEVER, A COMPONENT OF GRADIENT IS LARGER THAN  0.20

 CYCLE:     7 TIME:   0.008 TIME LEFT:  2.00D  GRAD.:     1.264 HEAT: -119.9458    
 CYCLE:     8 TIME:   0.004 TIME LEFT:  2.00D  GRAD.:     2.061 HEAT: -119.9460    
 TEST ON GRADIENT SATISFIED
                    HOWEVER, A COMPONENT OF GRADIENT IS LARGER THAN  0.20

 CYCLE:     9 TIME:   0.008 TIME LEFT:  2.00D  GRAD.:     1.005 HEAT: -119.9541    
 TEST ON GRADIENT SATISFIED
                    HOWEVER, A COMPONENT OF GRADIENT IS LARGER THAN  0.20

 CYCLE:    10 TIME:   0.008 TIME LEFT:  2.00D  GRAD.:     1.466 HEAT: -119.9650    
 CYCLE:    11 TIME:   0.008 TIME LEFT:  2.00D  GRAD.:     3.819 HEAT: -119.9857    
 CYCLE:    12 TIME:   0.008 TIME LEFT:  2.00D  GRAD.:     2.036 HEAT: -120.0046    
 TEST ON GRADIENT SATISFIED
                    HOWEVER, A COMPONENT OF GRADIENT IS LARGER THAN  0.20

 CYCLE:    13 TIME:   0.008 TIME LEFT:  2.00D  GRAD.:     0.785 HEAT: -120.0142    
 TEST ON GRADIENT SATISFIED
                    HOWEVER, A COMPONENT OF GRADIENT IS LARGER THAN  0.20

 CYCLE:    14 TIME:   0.004 TIME LEFT:  2.00D  GRAD.:     0.660 HEAT: -120.0154    
 TEST ON GRADIENT SATISFIED
PETERS TEST SATISFIED

 -------------------------------------------------------------------------------
 BFGS PM7 PRECISE MMOK
 /Users/ghutchis/Desktop/esters/isoamyl_acetate.pdb



     PETERS TEST WAS SATISFIED IN BFGS OPTIMIZATION           
     SCF FIELD WAS ACHIEVED                                   


                              PM7 CALCULATION
                                                       MOPAC2012 (Version: 14.208M)
                                                       Thu Feb  5 17:23:11 2015
                                                       No. of days left = 172




          FINAL HEAT OF FORMATION =       -120.01650 KCAL/MOL =    -502.14902 KJ/MOL


          TOTAL ENERGY            =      -1640.46584 EV
          ELECTRONIC ENERGY       =      -7992.30402 EV  POINT GROUP:     C1  
          CORE-CORE REPULSION     =       6351.83818 EV
          COSMO AREA              =        187.84 SQUARE ANGSTROMS
          COSMO VOLUME            =        181.39 CUBIC ANGSTROMS

          GRADIENT NORM           =          0.37843
          IONIZATION POTENTIAL    =         10.814588 EV
          HOMO LUMO ENERGIES (EV) =        -10.815  1.165
          NO. OF FILLED LEVELS    =         27
          MOLECULAR WEIGHT        =        130.186

          MOLECULAR DIMENSIONS (Angstroms)

            Atom       Atom       Distance
            H    17    H     5     9.05575
            H     3    H    23     4.09842
            H     9    H    12     2.83244


          SCF CALCULATIONS        =         22
 
          WALL-CLOCK TIME         =          0.133 SECONDS
          COMPUTATION TIME        =          0.255 SECONDS




  ATOM    CHEMICAL      BOND LENGTH      BOND ANGLE     TWIST ANGLE 
 NUMBER    SYMBOL       (ANGSTROMS)      (DEGREES)       (DEGREES) 
   (I)                     NA:I           NB:NA:I       NC:NB:NA:I       NA    NB    NC 
     1       C          0.01000069  *    0.0100015  *    0.0100019  *     0     0     0
     2       C          1.49077093  *    0.5729578  *  179.4270422  *     1     0     0
     3       H          1.10108346  *  111.3735848  *   -0.5729578  *     1     2     0
     4       H          1.10113378  *  111.3982615  * -119.2233800  *     1     2     3
     5       H          1.10110653  *  110.8470189  *  120.3853820  *     1     2     3
     6       O          1.35562830  *  109.7229436  *   59.9793828  *     2     1     3
     7       C          1.43612801  *  116.2485924  * -179.9982718  *     6     2     1
     8       C          1.52658286  *  103.7886909  * -179.5658054  *     7     6     2
     9       H          1.10360635  *  108.5178084  *   59.8968858  *     7     6     2
    10       H          1.10353174  *  108.4591577  *  -58.9652274  *     7     6     2
    11       C          1.53863032  *  111.0574170  * -173.2035711  *     8     7     6
    12       H          1.10635866  *  110.1564707  *   63.9188906  *     8     7     6
    13       H          1.10842274  *  109.4323440  *  -51.3288753  *     8     7     6
    14       C          1.53414003  *  109.3420700  *  171.2473761  *    11     8     7
    15       O          1.20399473  *  127.8405791  * -120.0187822  *     2     1     3
    16       H          1.09519126  *  111.4989688  *  -59.1410646  *    14    11     8
    17       H          1.09544403  *  111.2141953  * -178.9925398  *    14    11     8
    18       H          1.09534512  *  111.4951483  *   61.1401902  *    14    11     8
    19       C          1.53300920  *  111.0658981  *  -67.3065914  *    11     8     7
    20       H          1.11737450  *  109.0021751  *   52.6591861  *    11     8     7
    21       H          1.09533452  *  111.5441189  *  -55.0081385  *    19    11     8
    22       H          1.09574663  *  111.1988170  * -174.7612339  *    19    11     8
    23       H          1.09520891  *  111.6720689  *   65.4894911  *    19    11     8
                             CARTESIAN COORDINATES

   1    C        0.010000687     0.010001536     0.010001930
   2    C        1.500771619     0.010001536     0.010001930
   3    H       -0.391286424     1.035356808     0.010001930
   4    H       -0.391746359    -0.490531580     0.904742963
   5    H       -0.381854490    -0.510491595    -0.877675944
   6    O        1.958258530     0.648449673     1.114908162
   7    C        3.385081976     0.730140692     1.256205998
   8    C        3.578085026     1.478021772     2.572974369
   9    H        3.792939788     1.273065634     0.386245373
  10    H        3.793584931    -0.294823543     1.275072643
  11    C        5.062178072     1.808711375     2.808549163
  12    H        3.174164648     0.881752802     3.412820270
  13    H        2.976079189     2.408627135     2.560183412
  14    C        5.188743901     2.742397072     4.019250504
  15    O        2.239382075    -0.465678169    -0.813276107
  16    H        4.631837828     3.673247775     3.868199210
  17    H        6.234196644     3.012335202     4.204073656
  18    H        4.805539709     2.271576067     4.930986795
  19    C        5.879965503     0.533822495     3.045190819
  20    H        5.464921777     2.334938352     1.908877860
  21    H        5.467128122    -0.062271242     3.866162963
  22    H        6.917801010     0.771218188     3.304423188
  23    H        5.905324146    -0.101743373     2.153621685


           Empirical Formula: C7 H14 O2  =    23 atoms



      MOLECULAR POINT GROUP   :   C1  


                  EIGENVALUES  
 -31.29332 -30.00218 -29.34448 -27.06904 -25.34200 -24.04942 -21.48528 -20.37261
 -19.27610 -17.11999 -16.77842 -16.13881 -15.75340 -15.01089 -14.94606 -14.31623
 -13.98001 -13.44155 -13.39394 -13.08086 -12.60250 -12.50974 -11.83934 -11.76541
 -11.50778 -10.97717 -10.81459   1.16542   1.68579   3.40756   3.67414   4.05402
   4.19068   4.47657   4.65196   4.94907   5.02165   5.34895   5.51688   5.66755
   5.75540   5.79633   5.82300   5.89942   5.95507   6.14941   6.26550   6.57474
   6.93019   7.01405


              NET ATOMIC CHARGES AND DIPOLE CONTRIBUTIONS

  ATOM NO.   TYPE          CHARGE      No. of ELECS.   s-Pop       p-Pop       
    1          C          -0.512657        4.5127     1.06027     3.45238
    2          C           0.627493        3.3725     1.11124     2.26127
    3          H           0.184416        0.8156     0.81558
    4          H           0.184655        0.8153     0.81535
    5          H           0.184518        0.8155     0.81548
    6          O          -0.442323        6.4423     1.86698     4.57534
    7          C          -0.008976        4.0090     1.09399     2.91499
    8          C          -0.318037        4.3180     1.06592     3.25211
    9          H           0.134677        0.8653     0.86532
   10          H           0.136265        0.8637     0.86374
   11          C          -0.053185        4.0532     1.05562     2.99756
   12          H           0.153305        0.8467     0.84669
   13          H           0.154347        0.8457     0.84565
   14          C          -0.455000        4.4550     1.05636     3.39864
   15          O          -0.514701        6.5147     1.87661     4.63809
   16          H           0.142819        0.8572     0.85718
   17          H           0.144399        0.8556     0.85560
   18          H           0.145928        0.8541     0.85407
   19          C          -0.455585        4.4556     1.05609     3.39950
   20          H           0.131779        0.8682     0.86822
   21          H           0.146566        0.8534     0.85343
   22          H           0.144836        0.8552     0.85516
   23          H           0.144462        0.8555     0.85554
 DIPOLE           X         Y         Z       TOTAL
 POINT-CHG.    -0.774     1.063     1.775     2.209
 HYBRID        -0.079    -0.066     0.084     0.133
 SUM           -0.854     0.997     1.859     2.276


          ATOMIC ORBITAL ELECTRON POPULATIONS

    Atom      s        px        py        pz   
    1  C   1.06027   1.04143   1.20531   1.20565
    2  C   1.11124   0.85223   0.68236   0.72668
    3  H   0.81558
    4  H   0.81535
    5  H   0.81548
    6  O   1.86698   1.33387   1.73353   1.50794
    7  C   1.09399   0.76111   1.11240   1.04148
    8  C   1.06592   1.04991   1.14238   1.05983
    9  H   0.86532
   10  H   0.86374
   11  C   1.05562   0.96485   0.98861   1.04411
   12  H   0.84669
   13  H   0.84565
   14  C   1.05636   1.17379   1.12447   1.10038
   15  O   1.87661   1.64332   1.50728   1.48749
   16  H   0.85718
   17  H   0.85560
   18  H   0.85407
   19  C   1.05609   1.13818   1.08809   1.17323
   20  H   0.86822
   21  H   0.85343
   22  H   0.85516
   23  H   0.85554



 TOTAL JOB TIME:             0.14 SECONDS

 == MOPAC DONE ==
