 *******************************************************************************
 ** Site#: 6541         For non-commercial use only     Version 14.208M 64BITS**
 *******************************************************************************
 ** Cite this work as:                                                        **
 **                                                                           **
 ** (a) MOPAC2012, James J. P. Stewart, Stewart Computational Chemistry,      **
 **  Version 14.208M web: HTTP://OpenMOPAC.net         Days remaining: 172    **
 **                                                                           **
 **                                 AND                                       **
 **                                                                           **
 ** (b) Maia, J.D.C., et al., J. Chem. Theory Comput. 2012, 8, 3072-3081.     **
 **                DOI: 10.1021/ct3004645.                                    **
 *******************************************************************************
 **                                                                           **
 **                                MOPAC2012                                  **
 **                                                                           **
 *******************************************************************************

                            PM7 CALCULATION RESULTS


 *******************************************************************************
 *  CALCULATION DONE:                                Thu Feb  5 17:23:11 2015  *
 *  PM7        - The PM7 Hamiltonian to be used
 *  MMOK       - APPLY MM CORRECTION TO CONH BARRIER
 *  PRECISE    - CRITERIA TO BE INCREASED BY 100 TIMES
 *  BFGS       - USE THE BFGS GEOMETRY OPTIMIZER
 *  T=         - A TIME OF 172800.0 SECONDS REQUESTED
 *  DUMP=N     - RESTART FILE WRITTEN EVERY  7200.000 SECONDS
 *******************************************************************************
 BFGS PM7 PRECISE MMOK
 /Users/ghutchis/Desktop/esters/amyl_acetate.pdb

  ATOM    CHEMICAL      BOND LENGTH      BOND ANGLE     TWIST ANGLE 
 NUMBER    SYMBOL       (ANGSTROMS)      (DEGREES)       (DEGREES) 
   (I)                     NA:I           NB:NA:I       NC:NB:NA:I       NA    NB    NC 
     1       C          0.00000000  *    0.0000000  *    0.0000000  *     0     0     0
     2       C          1.49469300  *    0.0000000  *    0.0000000  *     1     0     0
     3       H          1.11033700  *  109.4634820  *    0.0000000  *     1     2     0
     4       H          1.10913000  *  109.5332670  * -119.7294320  *     1     2     3
     5       H          1.11119100  *  110.8027910  *  120.1036220  *     1     2     3
     6       O          1.35738900  *  119.3762920  *   59.9064210  *     2     1     3
     7       C          1.38048300  *  123.3561750  * -179.9022330  *     6     2     1
     8       C          1.52792200  *  109.4343660  *  179.9022300  *     7     6     2
     9       H          1.11241900  *  109.5771640  *   59.8381340  *     7     6     2
    10       H          1.11344200  *  109.5418620  *  -59.9718770  *     7     6     2
    11       C          1.53308600  *  111.1216120  * -179.9261560  *     8     7     6
    12       H          1.11240600  *  108.9498770  *   59.3379810  *     8     7     6
    13       H          1.11159800  *  108.9913450  *  -59.1805980  *     8     7     6
    14       C          1.53363700  *  110.9488230  * -179.9930040  *    11     8     7
    15       H          1.11228600  *  109.2799780  *   59.4589540  *    11     8     7
    16       H          1.11235200  *  109.2928280  *  -59.4789310  *    11     8     7
    17       C          1.52622400  *  111.1303600  * -179.9257910  *    14    11     8
    18       H          1.11125600  *  109.6840810  *   59.6625590  *    14    11     8
    19       H          1.11167400  *  109.6073210  *  -59.6412840  *    14    11     8
    20       H          1.11074700  *  110.3381120  *  -60.4622910  *    17    14    11
    21       H          1.11057900  *  109.5621150  *  179.9775780  *    17    14    11
    22       H          1.11033400  *  110.3813690  *   60.3573980  *    17    14    11
    23       O          1.22375600  *  119.8383950  * -120.1370540  *     2     1     3
 


          CARTESIAN COORDINATES 

    NO.       ATOM         X         Y         Z

     1         C        0.0000    0.0000    0.0000
     2         C        1.4947    0.0000    0.0000
     3         H       -0.3700    1.0469    0.0000
     4         H       -0.3708   -0.5184    0.9077
     5         H       -0.3946   -0.5210   -0.8986
     6         O        2.1606    0.5931    1.0234
     7         C        3.5377    0.6428    1.1053
     8         C        3.9448    1.3828    2.3786
     9         H        3.9448    1.1777    0.2189
    10         H        3.9470   -0.3924    1.1288
    11         C        5.4704    1.4623    2.5075
    12         H        3.5252    0.8464    3.2581
    13         H        3.5210    2.4101    2.3512
    14         C        5.8746    2.2055    3.7867
    15         H        5.8862    1.9971    1.6253
    16         H        5.8912    0.4329    2.5333
    17         C        7.3929    2.2886    3.9183
    18         H        5.4659    1.6745    4.6732
    19         H        5.4600    3.2368    3.7658
    20         H        7.8328    1.2697    3.9640
    21         H        7.6562    2.8309    4.8510
    22         H        7.8265    2.8356    3.0549
    23         O        2.1036   -0.5330   -0.9180

     ===================== shared-memory parallel CPU Section ======================
     **                                                                           **
     **  MOPAC calculations will run in shared-memory parallel CPUs               **
     **                                                                           **
     **  Number of Threads =  2                                                   **
     **                                                                           **
     **                                                                           **
     **  For information on this work, see:                                       **
     **                                                                           **
     **  Maia, J.D.C., et al., J. Chem. Theory Comput. 2012, 8, 3072-3081.        **
     **        DOI: 10.1021/ct3004645.                                            **
     **                                                                           **
     ===================== shared-memory parallel CPU Section ======================
      


 General Reference for PM7:
 "Optimization of Parameters for Semiempirical Methods VI: More Modifications to the 
 NDDO Approximations and Re-optimization of Parameters", J. J. P. Stewart, J. Mol. Mod., 1:32, 19 (2013)
 http://www.springerlink.com/openurl.asp?genre=article&id=doi:10.1007/s00894-012-1667-x

           Empirical Formula: C7 H14 O2  =    23 atoms



      MOLECULAR POINT GROUP   :   Cs  


      RHF CALCULATION, NO. OF DOUBLY OCCUPIED LEVELS =   27

      Geometry optimization using BFGS
 CYCLE:     1 TIME:   0.012 TIME LEFT:  2.00D  GRAD.:    38.821 HEAT: -117.5214    
 CYCLE:     2 TIME:   0.008 TIME LEFT:  2.00D  GRAD.:    38.564 HEAT: -118.2411    
 CYCLE:     3 TIME:   0.004 TIME LEFT:  2.00D  GRAD.:    10.059 HEAT: -119.3523    
 CYCLE:     4 TIME:   0.008 TIME LEFT:  2.00D  GRAD.:     8.023 HEAT: -119.4294    
 CYCLE:     5 TIME:   0.004 TIME LEFT:  2.00D  GRAD.:     3.168 HEAT: -119.5213    
 TEST ON GRADIENT SATISFIED
                    HOWEVER, A COMPONENT OF GRADIENT IS LARGER THAN  0.20

 CYCLE:     6 TIME:   0.008 TIME LEFT:  2.00D  GRAD.:     1.538 HEAT: -119.5311    
 TEST ON GRADIENT SATISFIED
                    HOWEVER, A COMPONENT OF GRADIENT IS LARGER THAN  0.20

 CYCLE:     7 TIME:   0.008 TIME LEFT:  2.00D  GRAD.:     0.855 HEAT: -119.5328    
 TEST ON GRADIENT SATISFIED
                    HOWEVER, A COMPONENT OF GRADIENT IS LARGER THAN  0.20

 CYCLE:     8 TIME:   0.008 TIME LEFT:  2.00D  GRAD.:     0.865 HEAT: -119.5330    
 TEST ON GRADIENT SATISFIED
PETERS TEST SATISFIED

 -------------------------------------------------------------------------------
 BFGS PM7 PRECISE MMOK
 /Users/ghutchis/Desktop/esters/amyl_acetate.pdb



     PETERS TEST WAS SATISFIED IN BFGS OPTIMIZATION           
     SCF FIELD WAS ACHIEVED                                   


                              PM7 CALCULATION
                                                       MOPAC2012 (Version: 14.208M)
                                                       Thu Feb  5 17:23:11 2015
                                                       No. of days left = 172




          FINAL HEAT OF FORMATION =       -119.53373 KCAL/MOL =    -500.12913 KJ/MOL


          TOTAL ENERGY            =      -1640.45187 EV
          ELECTRONIC ENERGY       =      -7807.03768 EV  POINT GROUP:     Cs  
          CORE-CORE REPULSION     =       6166.58581 EV
          COSMO AREA              =        192.52 SQUARE ANGSTROMS
          COSMO VOLUME            =        181.73 CUBIC ANGSTROMS

          GRADIENT NORM           =          0.16187
          IONIZATION POTENTIAL    =         10.842257 EV
          HOMO LUMO ENERGIES (EV) =        -10.842  1.145
          NO. OF FILLED LEVELS    =         27
          MOLECULAR WEIGHT        =        130.186

          MOLECULAR DIMENSIONS (Angstroms)

            Atom       Atom       Distance
            H    21    H     5    10.30933
            H     4    H     9     3.19046
            H     3    H    10     2.95759


          SCF CALCULATIONS        =         13
 
          WALL-CLOCK TIME         =          0.082 SECONDS
          COMPUTATION TIME        =          0.165 SECONDS




  ATOM    CHEMICAL      BOND LENGTH      BOND ANGLE     TWIST ANGLE 
 NUMBER    SYMBOL       (ANGSTROMS)      (DEGREES)       (DEGREES) 
   (I)                     NA:I           NB:NA:I       NC:NB:NA:I       NA    NB    NC 
     1       C          0.01000004  *    0.0100002  *    0.0100002  *     0     0     0
     2       C          1.49047439  *    0.5729578  *  179.4270422  *     1     0     0
     3       H          1.10116092  *  111.3746718  *   -0.5729578  *     1     2     0
     4       H          1.10112967  *  111.4048443  * -119.2575402  *     1     2     3
     5       H          1.10130155  *  110.8269757  *  120.3736146  *     1     2     3
     6       O          1.35617913  *  109.6929542  *   59.8933306  *     2     1     3
     7       C          1.43523992  *  116.2576618  * -179.9939656  *     6     2     1
     8       C          1.52730142  *  103.8646134  * -179.9886327  *     7     6     2
     9       H          1.10366630  *  108.5979899  *   59.4785982  *     7     6     2
    10       H          1.10368775  *  108.5919012  *  -59.4443367  *     7     6     2
    11       C          1.53144544  *  109.9844062  *  179.7888088  *     8     7     6
    12       H          1.10740102  *  109.9635349  *   57.5820111  *     8     7     6
    13       H          1.10737783  *  109.9594412  *  -58.0229306  *     8     7     6
    14       C          1.53470508  *  110.5626322  *  179.7891176  *    11     8     7
    15       H          1.10667696  *  110.2861366  *   58.1105942  *    11     8     7
    16       H          1.10668091  *  110.2661819  *  -58.5556322  *    11     8     7
    17       C          1.52855315  *  110.8205072  *  179.7472632  *    14    11     8
    18       H          1.10651306  *  110.0559455  *   57.8841235  *    14    11     8
    19       H          1.10651546  *  110.0416759  *  -58.4140894  *    14    11     8
    20       H          1.09575922  *  111.5084081  *  -60.2094323  *    17    14    11
    21       H          1.09561877  *  111.2488814  *  179.8879217  *    17    14    11
    22       H          1.09577676  *  111.5016249  *   59.9876359  *    17    14    11
    23       O          1.20383563  *  127.8890632  * -120.1032573  *     2     1     3
                             CARTESIAN COORDINATES

   1    C        0.010000043     0.010000195     0.010000157
   2    C        1.500474435     0.010000195     0.010000157
   3    H       -0.391334756     1.035419993     0.010000157
   4    H       -0.391863289    -0.491041852     0.904398994
   5    H       -0.381564477    -0.510472058    -0.878060065
   6    O        1.957478973     0.650487233     1.114601911
   7    C        3.383308560     0.732910996     1.256481972
   8    C        3.577372060     1.492528875     2.567195385
   9    H        3.793633230     1.267964469     0.382736734
  10    H        3.793773217    -0.291184397     1.286046129
  11    C        5.071431961     1.656710452     2.860716363
  12    H        3.072048074     0.955851653     3.393610682
  13    H        3.078543412     2.479508968     2.509524573
  14    C        5.281809358     2.423507051     4.173379307
  15    H        5.569286640     2.191361989     2.029438829
  16    H        5.561198857     0.666187707     2.921836939
  17    C        6.771480805     2.585332603     4.475316744
  18    H        4.782639125     1.893513774     5.006630384
  19    H        4.798311031     3.417017455     4.113857032
  20    H        7.268727680     1.614139451     4.576399248
  21    H        6.929795606     3.133823757     5.410450085
  22    H        7.284788082     3.137513951     3.680119850
  23    O        2.239791509    -0.466516177    -0.811926023


           Empirical Formula: C7 H14 O2  =    23 atoms



      MOLECULAR POINT GROUP   :   Cs  


                  EIGENVALUES  
 -31.31405 -29.95914 -29.12856 -27.29651 -26.16861 -23.30555 -20.63721 -20.45821
 -19.89182 -17.13927 -17.06548 -16.16950 -15.98013 -15.10234 -14.82574 -14.32137
 -13.87857 -13.80925 -13.34591 -13.02624 -12.54188 -12.16103 -12.08693 -11.77926
 -11.38051 -11.01715 -10.84226   1.14509   1.66172   3.38253   3.63099   4.01472
   4.25681   4.55388   4.68030   4.93021   5.00599   5.14260   5.40650   5.49540
   5.68634   5.78504   5.86191   5.92115   6.08209   6.24809   6.47757   6.49509
   6.56330   6.95497


              NET ATOMIC CHARGES AND DIPOLE CONTRIBUTIONS

  ATOM NO.   TYPE          CHARGE      No. of ELECS.   s-Pop       p-Pop       
    1          C          -0.512845        4.5128     1.06028     3.45256
    2          C           0.626618        3.3734     1.11148     2.26190
    3          H           0.184787        0.8152     0.81521
    4          H           0.184765        0.8152     0.81524
    5          H           0.185085        0.8149     0.81492
    6          O          -0.440685        6.4407     1.86703     4.57365
    7          C          -0.011250        4.0112     1.09413     2.91712
    8          C          -0.302762        4.3028     1.06176     3.24100
    9          H           0.135481        0.8645     0.86452
   10          H           0.135515        0.8645     0.86448
   11          C          -0.266693        4.2667     1.05890     3.20779
   12          H           0.152788        0.8472     0.84721
   13          H           0.152683        0.8473     0.84732
   14          C          -0.247013        4.2470     1.05520     3.19181
   15          H           0.140249        0.8598     0.85975
   16          H           0.140285        0.8597     0.85971
   17          C          -0.440189        4.4402     1.05205     3.38814
   18          H           0.134855        0.8651     0.86515
   19          H           0.134822        0.8652     0.86518
   20          H           0.143205        0.8568     0.85680
   21          H           0.140486        0.8595     0.85951
   22          H           0.143218        0.8568     0.85678
   23          O          -0.513405        6.5134     1.87659     4.63682
 DIPOLE           X         Y         Z       TOTAL
 POINT-CHG.    -0.833     1.038     1.790     2.231
 HYBRID        -0.020    -0.018    -0.032     0.042
 SUM           -0.853     1.019     1.758     2.204


          ATOMIC ORBITAL ELECTRON POPULATIONS

    Atom      s        px        py        pz   
    1  C   1.06028   1.04108   1.20557   1.20591
    2  C   1.11148   0.85261   0.68264   0.72665
    3  H   0.81521
    4  H   0.81524
    5  H   0.81492
    6  O   1.86703   1.33169   1.73328   1.50869
    7  C   1.09413   0.76407   1.10996   1.04310
    8  C   1.06176   1.03871   1.14313   1.05916
    9  H   0.86452
   10  H   0.86448
   11  C   1.05890   1.01002   1.13239   1.06538
   12  H   0.84721
   13  H   0.84732
   14  C   1.05520   1.01720   1.12356   1.05106
   15  H   0.85975
   16  H   0.85971
   17  C   1.05205   1.04933   1.17230   1.16652
   18  H   0.86515
   19  H   0.86518
   20  H   0.85680
   21  H   0.85951
   22  H   0.85678
   23  O   1.87659   1.64256   1.50678   1.48747



 TOTAL JOB TIME:             0.09 SECONDS

 == MOPAC DONE ==
