 *******************************************************************************
 ** Site#: 6541         For non-commercial use only     Version 14.208M 64BITS**
 *******************************************************************************
 ** Cite this work as:                                                        **
 **                                                                           **
 ** (a) MOPAC2012, James J. P. Stewart, Stewart Computational Chemistry,      **
 **  Version 14.208M web: HTTP://OpenMOPAC.net         Days remaining: 126    **
 **                                                                           **
 **                                 AND                                       **
 **                                                                           **
 ** (b) Maia, J.D.C., et al., J. Chem. Theory Comput. 2012, 8, 3072-3081.     **
 **                DOI: 10.1021/ct3004645.                                    **
 *******************************************************************************
 **                                                                           **
 **                                MOPAC2012                                  **
 **                                                                           **
 *******************************************************************************

                            PM7 CALCULATION RESULTS


 *******************************************************************************
 *  CALCULATION DONE:                                Mon Mar 23 23:17:52 2015  *
 *  PM7        - The PM7 Hamiltonian to be used
 *  MMOK       - APPLY MM CORRECTION TO CONH BARRIER
 *  PRECISE    - CRITERIA TO BE INCREASED BY 100 TIMES
 *  BFGS       - USE THE BFGS GEOMETRY OPTIMIZER
 *  T=         - A TIME OF 172800.0 SECONDS REQUESTED
 *  DUMP=N     - RESTART FILE WRITTEN EVERY  7200.000 SECONDS
 *******************************************************************************
 BFGS PM7 MMOK PRECISE
 C4H4O

   ATOM   CHEMICAL          X               Y               Z
  NUMBER   SYMBOL      (ANGSTROMS)     (ANGSTROMS)     (ANGSTROMS)
 
     1       O          0.00000000  *  -1.10080000  *   0.00000000  *
     2       C         -1.09660000  *  -0.32550000  *   0.00000000  *
     3       C         -0.70690000  *   0.96200000  *   0.00010000  *
     4       C          0.70690000  *   0.96200000  *   0.00000000  *
     5       C          1.09660000  *  -0.32550000  *   0.00000000  *
     6       H         -2.11810000  *  -0.67620000  *  -0.00030000  *
     7       H         -1.35050000  *   1.82920000  *  -0.00040000  *
     8       H          1.35050000  *   1.82920000  *  -0.00030000  *
     9       H          2.11810000  *  -0.67620000  *   0.00000000  *
 


          CARTESIAN COORDINATES 

    NO.       ATOM         X         Y         Z

     1         O        0.0000   -1.1008    0.0000
     2         C       -1.0966   -0.3255    0.0000
     3         C       -0.7069    0.9620    0.0001
     4         C        0.7069    0.9620    0.0000
     5         C        1.0966   -0.3255    0.0000
     6         H       -2.1181   -0.6762   -0.0003
     7         H       -1.3505    1.8292   -0.0004
     8         H        1.3505    1.8292   -0.0003
     9         H        2.1181   -0.6762    0.0000

     ===================== shared-memory parallel CPU Section ======================
     **                                                                           **
     **  MOPAC calculations will run in shared-memory parallel CPUs               **
     **                                                                           **
     **  Number of Threads =  2                                                   **
     **                                                                           **
     **                                                                           **
     **  For information on this work, see:                                       **
     **                                                                           **
     **  Maia, J.D.C., et al., J. Chem. Theory Comput. 2012, 8, 3072-3081.        **
     **        DOI: 10.1021/ct3004645.                                            **
     **                                                                           **
     ===================== shared-memory parallel CPU Section ======================
      


 General Reference for PM7:
 "Optimization of Parameters for Semiempirical Methods VI: More Modifications to the 
 NDDO Approximations and Re-optimization of Parameters", J. J. P. Stewart, J. Mol. Mod., 1:32, 19 (2013)
 http://www.springerlink.com/openurl.asp?genre=article&id=doi:10.1007/s00894-012-1667-x

           Empirical Formula: C4 H4 O  =     9 atoms



      MOLECULAR POINT GROUP   :   C2v 


      RHF CALCULATION, NO. OF DOUBLY OCCUPIED LEVELS =   13

      Geometry optimization using BFGS
 CYCLE:     1 TIME:   0.000 TIME LEFT:  2.00D  GRAD.:    44.850 HEAT: -3.378489    
 CYCLE:     2 TIME:   0.008 TIME LEFT:  2.00D  GRAD.:    44.402 HEAT: -4.631345    
 CYCLE:     3 TIME:   0.000 TIME LEFT:  2.00D  GRAD.:    55.093 HEAT: -4.901763    
 CYCLE:     4 TIME:   0.000 TIME LEFT:  2.00D  GRAD.:    22.909 HEAT: -5.486688    
 CYCLE:     5 TIME:   0.000 TIME LEFT:  2.00D  GRAD.:     9.597 HEAT: -5.580562    
 CYCLE:     6 TIME:   0.000 TIME LEFT:  2.00D  GRAD.:     3.934 HEAT: -5.620936    
 CYCLE:     7 TIME:   0.008 TIME LEFT:  2.00D  GRAD.:     5.167 HEAT: -5.627538    
 CYCLE:     8 TIME:   0.000 TIME LEFT:  2.00D  GRAD.:     2.462 HEAT: -5.642223    
 CYCLE:     9 TIME:   0.000 TIME LEFT:  2.00D  GRAD.:     2.041 HEAT: -5.647773    
 CYCLE:    10 TIME:   0.008 TIME LEFT:  2.00D  GRAD.:     1.980 HEAT: -5.652832    
 TEST ON GRADIENT SATISFIED
                    HOWEVER, A COMPONENT OF GRADIENT IS LARGER THAN  0.20

 CYCLE:    11 TIME:   0.000 TIME LEFT:  2.00D  GRAD.:     0.999 HEAT: -5.655390    
 TEST ON GRADIENT SATISFIED
PETERS TEST SATISFIED

 -------------------------------------------------------------------------------
 BFGS PM7 MMOK PRECISE
 C4H4O



     PETERS TEST WAS SATISFIED IN BFGS OPTIMIZATION           
     SCF FIELD WAS ACHIEVED                                   


                              PM7 CALCULATION
                                                       MOPAC2012 (Version: 14.208M)
                                                       Mon Mar 23 23:17:52 2015
                                                       No. of days left = 126




          FINAL HEAT OF FORMATION =         -5.65591 KCAL/MOL =     -23.66433 KJ/MOL


          TOTAL ENERGY            =       -839.47210 EV
          ELECTRONIC ENERGY       =      -2769.39274 EV  POINT GROUP:     C2v 
          CORE-CORE REPULSION     =       1929.92063 EV
          COSMO AREA              =        100.80 SQUARE ANGSTROMS
          COSMO VOLUME            =         86.45 CUBIC ANGSTROMS

          GRADIENT NORM           =          0.37381
          IONIZATION POTENTIAL    =          9.546487 EV
          HOMO LUMO ENERGIES (EV) =         -9.546  0.445
          NO. OF FILLED LEVELS    =         13
          MOLECULAR WEIGHT        =         68.075

          MOLECULAR DIMENSIONS (Angstroms)

            Atom       Atom       Distance
            H     9    H     7     4.32454
            H     8    H     6     4.22704
            C     3    O     1     0.00031


          SCF CALCULATIONS        =         15
 
          WALL-CLOCK TIME         =          0.039 SECONDS
          COMPUTATION TIME        =          0.069 SECONDS




   ATOM   CHEMICAL          X               Y               Z
  NUMBER   SYMBOL      (ANGSTROMS)     (ANGSTROMS)     (ANGSTROMS)
 
     1       O         -0.00052529  *  -1.14745296  *   0.00081926  *
     2       C         -1.10708070  *  -0.32159770  *  -0.00193417  *
     3       C         -0.72355056  *   0.99084894  *  -0.00388843  *
     4       C          0.71986074  *   0.99176831  *  -0.00227205  *
     5       C          1.10485502  *  -0.32025493  *   0.00026212  *
     6       H         -2.02957034  *  -0.85171266  *  -0.00205256  *
     7       H         -1.33859558  *   1.86490929  *  -0.00586758  *
     8       H          1.33288887  *   1.86733424  *  -0.00328542  *
     9       H          2.02855465  *  -0.84874505  *   0.00221202  *
                             CARTESIAN COORDINATES

   1    O       -0.000525290    -1.147452959     0.000819257
   2    C       -1.107080696    -0.321597698    -0.001934166
   3    C       -0.723550558     0.990848944    -0.003888429
   4    C        0.719860744     0.991768312    -0.002272049
   5    C        1.104855017    -0.320254935     0.000262119
   6    H       -2.029570342    -0.851712660    -0.002052561
   7    H       -1.338595583     1.864909288    -0.005867584
   8    H        1.332888868     1.867334242    -0.003285421
   9    H        2.028554651    -0.848745046     0.002212019


           Empirical Formula: C4 H4 O  =     9 atoms



      MOLECULAR POINT GROUP   :   C2v 


                  EIGENVALUES  
 -32.48588 -27.61683 -25.03248 -20.50665 -20.36147 -18.00747 -15.16057 -14.87240
 -13.84662 -13.61963 -13.35867 -10.64117  -9.54649   0.44475   1.32095   1.91886
   3.65358   4.70043   4.82142   5.28393   5.62944   5.97353   6.10450   6.19956


              NET ATOMIC CHARGES AND DIPOLE CONTRIBUTIONS

  ATOM NO.   TYPE          CHARGE      No. of ELECS.   s-Pop       p-Pop       
    1          O          -0.177604        6.1776     1.87254     4.30507
    2          C          -0.020861        4.0209     1.12102     2.89984
    3          C          -0.229408        4.2294     1.08348     3.14593
    4          C          -0.229484        4.2295     1.08347     3.14601
    5          C          -0.020787        4.0208     1.12099     2.89980
    6          H           0.170501        0.8295     0.82950
    7          H           0.168529        0.8315     0.83147
    8          H           0.168569        0.8314     0.83143
    9          H           0.170545        0.8295     0.82946
 DIPOLE           X         Y         Z       TOTAL
 POINT-CHG.     0.000     0.487    -0.001     0.487
 HYBRID        -0.000    -0.360     0.001     0.360
 SUM           -0.000     0.127    -0.000     0.127


          ATOMIC ORBITAL ELECTRON POPULATIONS

    Atom      s        px        py        pz   
    1  O   1.87254   1.22701   1.36273   1.71533
    2  C   1.12102   0.91081   0.94005   1.04898
    3  C   1.08348   1.01229   1.04026   1.09338
    4  C   1.08347   1.01216   1.04037   1.09348
    5  C   1.12099   0.91122   0.93974   1.04884
    6  H   0.82950
    7  H   0.83147
    8  H   0.83143
    9  H   0.82946



 TOTAL JOB TIME:             0.04 SECONDS

 == MOPAC DONE ==
