 *******************************************************************************
 ** Site#: 6541         For non-commercial use only     Version 14.208M 64BITS**
 *******************************************************************************
 ** Cite this work as:                                                        **
 **                                                                           **
 ** (a) MOPAC2012, James J. P. Stewart, Stewart Computational Chemistry,      **
 **  Version 14.208M web: HTTP://OpenMOPAC.net         Days remaining: 172    **
 **                                                                           **
 **                                 AND                                       **
 **                                                                           **
 ** (b) Maia, J.D.C., et al., J. Chem. Theory Comput. 2012, 8, 3072-3081.     **
 **                DOI: 10.1021/ct3004645.                                    **
 *******************************************************************************
 **                                                                           **
 **                                MOPAC2012                                  **
 **                                                                           **
 *******************************************************************************

                            PM7 CALCULATION RESULTS


 *******************************************************************************
 *  CALCULATION DONE:                                Thu Feb  5 17:12:43 2015  *
 *  PM7        - The PM7 Hamiltonian to be used
 *  MMOK       - APPLY MM CORRECTION TO CONH BARRIER
 *  PRECISE    - CRITERIA TO BE INCREASED BY 100 TIMES
 *  BFGS       - USE THE BFGS GEOMETRY OPTIMIZER
 *  T=         - A TIME OF 172800.0 SECONDS REQUESTED
 *  DUMP=N     - RESTART FILE WRITTEN EVERY  7200.000 SECONDS
 *******************************************************************************
 BFGS PM7 PRECISE MMOK
 /Users/ghutchis/Desktop/esters/octyl_acetate.pdb

  ATOM    CHEMICAL      BOND LENGTH      BOND ANGLE     TWIST ANGLE 
 NUMBER    SYMBOL       (ANGSTROMS)      (DEGREES)       (DEGREES) 
   (I)                     NA:I           NB:NA:I       NC:NB:NA:I       NA    NB    NC 
     1       C          0.00000000  *    0.0000000  *    0.0000000  *     0     0     0
     2       C          1.49562000  *    0.0000000  *    0.0000000  *     1     0     0
     3       H          1.10946800  *  109.4971450  *    0.0000000  *     1     2     0
     4       H          1.11027900  *  109.3624000  * -119.3643610  *     1     2     3
     5       H          1.11104900  *  111.0555420  *  120.3849600  *     1     2     3
     6       O          1.35557100  *  118.9212420  *   59.4318170  *     2     1     3
     7       C          1.38055700  *  124.4565390  *  179.0321800  *     6     2     1
     8       C          1.52401300  *  107.7161330  *  178.9184300  *     7     6     2
     9       H          1.11268100  *  109.8406930  *   59.4747340  *     7     6     2
    10       H          1.11171100  *  109.9451200  *  -61.0637030  *     7     6     2
    11       C          1.53459000  *  113.4415880  * -179.9624260  *     8     7     6
    12       H          1.11204000  *  108.6642210  *   58.6146360  *     8     7     6
    13       H          1.11271200  *  108.0053100  *  -58.9855700  *     8     7     6
    14       C          1.53308700  *  108.7224820  *  178.0523810  *    11     8     7
    15       O          1.22211000  *  120.1593470  * -120.4098590  *     2     1     3
    16       H          1.11196100  *  109.7155100  *   58.3037150  *    11     8     7
    17       H          1.11286500  *  109.8697600  *  -61.4049350  *    11     8     7
    18       C          1.53190000  *  113.3820780  * -179.4341220  *    14    11     8
    19       H          1.11284200  *  109.1824270  *   59.0747110  *    14    11     8
    20       H          1.11354800  *  108.2224170  *  -58.9660830  *    14    11     8
    21       C          1.53529500  *  109.1669900  *  177.3085730  *    18    14    11
    22       H          1.11163400  *  109.5490940  *   57.5747310  *    18    14    11
    23       H          1.11237800  *  109.7287920  *  -61.9192230  *    18    14    11
    24       C          1.52993100  *  112.2895310  * -179.4455500  *    21    18    14
    25       H          1.11251500  *  109.3667040  *   59.3486270  *    21    18    14
    26       H          1.11286700  *  108.7071850  *  -59.1470790  *    21    18    14
    27       C          1.52812900  *  110.4930410  *  178.2064920  *    24    21    18
    28       H          1.11105800  *  109.7770020  *   58.2693450  *    24    21    18
    29       H          1.11229000  *  109.7200330  *  -61.3402310  *    24    21    18
    30       H          1.11233200  *  110.1761020  *  -60.3496530  *    27    24    21
    31       H          1.10906100  *  109.9117790  * -179.9906710  *    27    24    21
    32       H          1.11116200  *  110.3955390  *   60.0013990  *    27    24    21
 


          CARTESIAN COORDINATES 

    NO.       ATOM         X         Y         Z

     1         C        0.0000    0.0000    0.0000
     2         C        1.4956    0.0000    0.0000
     3         H       -0.3703    1.0458    0.0000
     4         H       -0.3681   -0.5136    0.9129
     5         H       -0.3992   -0.5245   -0.8944
     6         O        2.1512    0.6034    1.0216
     7         C        3.5252    0.6546    1.1461
     8         C        3.8472    1.4419    2.4106
     9         H        3.9656    1.1676    0.2624
    10         H        3.9378   -0.3750    1.2210
    11         C        5.3522    1.5806    2.6768
    12         H        3.3713    0.9333    3.2775
    13         H        3.4021    2.4565    2.3069
    14         C        5.5527    2.4271    3.9392
    15         O        2.1096   -0.5349   -0.9113
    16         H        5.8415    2.0807    1.8125
    17         H        5.8061    0.5740    2.8154
    18         C        7.0262    2.6453    4.2971
    19         H        5.0448    1.9314    4.7963
    20         H        5.0783    3.4204    3.7713
    21         C        7.1159    3.5558    5.5300
    22         H        7.5488    3.1285    3.4432
    23         H        7.5102    1.6663    4.5082
    24         C        8.5628    3.8326    5.9429
    25         H        6.5804    3.0789    6.3806
    26         H        6.6205    4.5243    5.2953
    27         C        8.6052    4.7763    7.1441
    28         H        9.1110    4.3037    5.0991
    29         H        9.0661    2.8774    6.2103
    30         H        8.1234    5.7455    6.8877
    31         H        9.6577    4.9704    7.4349
    32         H        8.0721    4.3264    8.0090

     ===================== shared-memory parallel CPU Section ======================
     **                                                                           **
     **  MOPAC calculations will run in shared-memory parallel CPUs               **
     **                                                                           **
     **  Number of Threads =  2                                                   **
     **                                                                           **
     **                                                                           **
     **  For information on this work, see:                                       **
     **                                                                           **
     **  Maia, J.D.C., et al., J. Chem. Theory Comput. 2012, 8, 3072-3081.        **
     **        DOI: 10.1021/ct3004645.                                            **
     **                                                                           **
     ===================== shared-memory parallel CPU Section ======================
      


 General Reference for PM7:
 "Optimization of Parameters for Semiempirical Methods VI: More Modifications to the 
 NDDO Approximations and Re-optimization of Parameters", J. J. P. Stewart, J. Mol. Mod., 1:32, 19 (2013)
 http://www.springerlink.com/openurl.asp?genre=article&id=doi:10.1007/s00894-012-1667-x

           Empirical Formula: C10 H20 O2  =    32 atoms



      MOLECULAR POINT GROUP   :   C1  


      RHF CALCULATION, NO. OF DOUBLY OCCUPIED LEVELS =   36

      Geometry optimization using BFGS
 CYCLE:     1 TIME:   0.031 TIME LEFT:  2.00D  GRAD.:    32.447 HEAT: -132.7600    
 CYCLE:     2 TIME:   0.012 TIME LEFT:  2.00D  GRAD.:    29.423 HEAT: -133.8715    
 CYCLE:     3 TIME:   0.012 TIME LEFT:  2.00D  GRAD.:    17.231 HEAT: -134.4323    
 CYCLE:     4 TIME:   0.012 TIME LEFT:  2.00D  GRAD.:    11.495 HEAT: -134.6859    
 CYCLE:     5 TIME:   0.012 TIME LEFT:  2.00D  GRAD.:     6.609 HEAT: -134.8107    
 CYCLE:     6 TIME:   0.012 TIME LEFT:  2.00D  GRAD.:     5.068 HEAT: -134.8380    
 TEST ON GRADIENT SATISFIED
                    HOWEVER, A COMPONENT OF GRADIENT IS LARGER THAN  0.20

 CYCLE:     7 TIME:   0.012 TIME LEFT:  2.00D  GRAD.:     1.251 HEAT: -134.8680    
 TEST ON GRADIENT SATISFIED
                    HOWEVER, A COMPONENT OF GRADIENT IS LARGER THAN  0.20

 CYCLE:     8 TIME:   0.008 TIME LEFT:  2.00D  GRAD.:     1.144 HEAT: -134.8688    
 TEST ON GRADIENT SATISFIED
PETERS TEST SATISFIED

 -------------------------------------------------------------------------------
 BFGS PM7 PRECISE MMOK
 /Users/ghutchis/Desktop/esters/octyl_acetate.pdb



     PETERS TEST WAS SATISFIED IN BFGS OPTIMIZATION           
     SCF FIELD WAS ACHIEVED                                   


                              PM7 CALCULATION
                                                       MOPAC2012 (Version: 14.208M)
                                                       Thu Feb  5 17:12:43 2015
                                                       No. of days left = 172




          FINAL HEAT OF FORMATION =       -134.87065 KCAL/MOL =    -564.29879 KJ/MOL


          TOTAL ENERGY            =      -2090.34947 EV
          ELECTRONIC ENERGY       =     -11516.23015 EV  POINT GROUP:     C1  
          CORE-CORE REPULSION     =       9425.88068 EV
          COSMO AREA              =        252.96 SQUARE ANGSTROMS
          COSMO VOLUME            =        247.14 CUBIC ANGSTROMS

          GRADIENT NORM           =          0.39732
          IONIZATION POTENTIAL    =         10.826556 EV
          HOMO LUMO ENERGIES (EV) =        -10.827  1.144
          NO. OF FILLED LEVELS    =         36
          MOLECULAR WEIGHT        =        172.267

          MOLECULAR DIMENSIONS (Angstroms)

            Atom       Atom       Distance
            H    31    H     5    14.10748
            H    30    H    10     3.24510
            H     9    H    32     2.95199


          SCF CALCULATIONS        =         12
 
          WALL-CLOCK TIME         =          0.203 SECONDS
          COMPUTATION TIME        =          0.317 SECONDS




  ATOM    CHEMICAL      BOND LENGTH      BOND ANGLE     TWIST ANGLE 
 NUMBER    SYMBOL       (ANGSTROMS)      (DEGREES)       (DEGREES) 
   (I)                     NA:I           NB:NA:I       NC:NB:NA:I       NA    NB    NC 
     1       C          0.01000004  *    0.0100002  *    0.0100001  *     0     0     0
     2       C          1.49047089  *    0.5729578  *  179.4270422  *     1     0     0
     3       H          1.10114357  *  111.4054876  *   -0.5729578  *     1     2     0
     4       H          1.10111096  *  111.3889553  * -119.3040803  *     1     2     3
     5       H          1.10136804  *  110.8130248  *  120.3316212  *     1     2     3
     6       O          1.35605262  *  109.7077838  *   59.5120936  *     2     1     3
     7       C          1.43528956  *  116.2559446  *  179.9980312  *     6     2     1
     8       C          1.52746982  *  103.8572732  *  179.3363306  *     7     6     2
     9       H          1.10378524  *  108.6470391  *   58.7850080  *     7     6     2
    10       H          1.10369293  *  108.5366878  *  -60.1290173  *     7     6     2
    11       C          1.53147500  *  109.9634052  *  179.5751655  *     8     7     6
    12       H          1.10742675  *  109.9721297  *   57.3768382  *     8     7     6
    13       H          1.10746233  *  109.9457601  *  -58.2195097  *     8     7     6
    14       C          1.53418870  *  110.4856537  *  178.8670586  *    11     8     7
    15       O          1.20386057  *  127.9048004  * -120.4869027  *     2     1     3
    16       H          1.10687640  *  110.2176729  *   57.1880549  *    11     8     7
    17       H          1.10683280  *  110.2160699  *  -59.4742159  *    11     8     7
    18       C          1.53386671  *  110.6467968  *  179.9698922  *    14    11     8
    19       H          1.10606643  *  110.1335129  *   58.1312809  *    14    11     8
    20       H          1.10618823  *  110.0754951  *  -58.2505759  *    14    11     8
    21       C          1.53386126  *  110.6479408  *  178.2796009  *    18    14    11
    22       H          1.10597397  *  110.1067869  *   56.4846912  *    18    14    11
    23       H          1.10594421  *  110.0887273  *  -59.9256973  *    18    14    11
    24       C          1.53447633  *  110.7796765  *  179.9503472  *    21    18    14
    25       H          1.10578511  *  110.1200605  *   58.1039528  *    21    18    14
    26       H          1.10583925  *  110.0920731  *  -58.2492043  *    21    18    14
    27       C          1.52879204  *  110.8684054  *  178.9426954  *    24    21    18
    28       H          1.10631983  *  110.0264556  *   57.0824801  *    24    21    18
    29       H          1.10635223  *  110.0043820  *  -59.1905555  *    24    21    18
    30       H          1.09565256  *  111.4464782  *  -60.2165417  *    27    24    21
    31       H          1.09552790  *  111.2548362  *  179.8399887  *    27    24    21
    32       H          1.09566877  *  111.4352786  *   59.8916699  *    27    24    21
                             CARTESIAN COORDINATES

   1    C        0.010000043     0.010000202     0.010000133
   2    C        1.500470938     0.010000202     0.010000133
   3    H       -0.391879872     1.035187836     0.010000133
   4    H       -0.391572151    -0.491814179     0.904073644
   5    H       -0.381337458    -0.509900555    -0.878577230
   6    O        1.957763285     0.657702392     1.110111171
   7    C        3.383689514     0.740707387     1.251180907
   8    C        3.578029731     1.524143951     2.547955014
   9    H        3.796147259     1.258674398     0.368044084
  10    H        3.791682105    -0.283650348     1.299877470
  11    C        5.072252226     1.686810998     2.841645730
  12    H        3.068409191     1.005482466     3.383222141
  13    H        3.083472991     2.511995569     2.470265781
  14    C        5.281617847     2.496798093     4.127655808
  15    O        2.240064254    -0.471915902    -0.808558883
  16    H        5.576360797     2.188676039     1.993600101
  17    H        5.553196340     0.694667211     2.938714354
  18    C        6.777213895     2.661341282     4.425758284
  19    H        4.778961575     1.998436128     4.977570499
  20    H        4.803399611     3.489780217     4.033071363
  21    C        6.987292740     3.507229844     5.687926971
  22    H        7.286731080     3.133512518     3.565162566
  23    H        7.250742197     1.669886720     4.551859022
  24    C        8.482673647     3.672744001     5.989686169
  25    H        6.478244076     3.037356568     6.549814011
  26    H        6.515920878     4.499728714     5.562886931
  27    C        8.695012104     4.537329167     7.232509553
  28    H        8.996394984     4.126798507     5.121430184
  29    H        8.951599952     2.681181861     6.134350915
  30    H        8.271457458     5.539170535     7.100714763
  31    H        9.760881344     4.657328375     7.455454231
  32    H        8.221924354     4.092770682     8.115145253


           Empirical Formula: C10 H20 O2  =    32 atoms



      MOLECULAR POINT GROUP   :   C1  


                  EIGENVALUES  
 -31.31578 -29.98338 -29.52840 -28.45471 -27.13055 -26.18447 -24.17004 -21.88785
 -20.70601 -20.26375 -19.91021 -19.60601 -17.23333 -17.04567 -16.61597 -15.98939
 -15.83499 -14.98129 -14.94663 -14.59733 -14.06319 -13.98851 -13.92087 -13.22318
 -13.20662 -12.85020 -12.61614 -12.46937 -12.18010 -11.88599 -11.78693 -11.40691
 -11.31335 -11.15985 -11.01934 -10.82656   1.14363   1.66176   3.37821   3.60082
   3.86080   4.07150   4.20444   4.47147   4.52601   4.79629   4.89086   4.94311
   5.00600   5.12980   5.31585   5.47835   5.49444   5.66836   5.85590   5.86059
   5.86165   5.97600   6.09197   6.21658   6.24702   6.44777   6.50172   6.59225
   6.60620   6.66601   6.70449   7.02127


              NET ATOMIC CHARGES AND DIPOLE CONTRIBUTIONS

  ATOM NO.   TYPE          CHARGE      No. of ELECS.   s-Pop       p-Pop       
    1          C          -0.512715        4.5127     1.06027     3.45244
    2          C           0.626730        3.3733     1.11148     2.26179
    3          H           0.184808        0.8152     0.81519
    4          H           0.184819        0.8152     0.81518
    5          H           0.185081        0.8149     0.81492
    6          O          -0.441305        6.4413     1.86695     4.57435
    7          C          -0.011761        4.0118     1.09428     2.91748
    8          C          -0.300810        4.3008     1.06172     3.23909
    9          H           0.135544        0.8645     0.86446
   10          H           0.135146        0.8649     0.86485
   11          C          -0.266174        4.2662     1.05868     3.20749
   12          H           0.152883        0.8471     0.84712
   13          H           0.152800        0.8472     0.84720
   14          C          -0.268456        4.2685     1.05974     3.20872
   15          O          -0.513649        6.5136     1.87659     4.63706
   16          H           0.140140        0.8599     0.85986
   17          H           0.140057        0.8599     0.85994
   18          C          -0.274777        4.2748     1.06000     3.21478
   19          H           0.137593        0.8624     0.86241
   20          H           0.137760        0.8622     0.86224
   21          C          -0.273965        4.2740     1.06018     3.21379
   22          H           0.137119        0.8629     0.86288
   23          H           0.136886        0.8631     0.86311
   24          C          -0.251066        4.2511     1.05540     3.19567
   25          H           0.136763        0.8632     0.86324
   26          H           0.136932        0.8631     0.86307
   27          C          -0.439658        4.4397     1.05206     3.38760
   28          H           0.133890        0.8661     0.86611
   29          H           0.133777        0.8662     0.86622
   30          H           0.142473        0.8575     0.85753
   31          H           0.140663        0.8593     0.85934
   32          H           0.142473        0.8575     0.85753
 DIPOLE           X         Y         Z       TOTAL
 POINT-CHG.    -0.803     1.065     1.793     2.235
 HYBRID        -0.082     0.006     0.004     0.082
 SUM           -0.885     1.071     1.797     2.271


          ATOMIC ORBITAL ELECTRON POPULATIONS

    Atom      s        px        py        pz   
    1  C   1.06027   1.04092   1.20567   1.20585
    2  C   1.11148   0.85264   0.68311   0.72603
    3  H   0.81519
    4  H   0.81518
    5  H   0.81492
    6  O   1.86695   1.33213   1.73069   1.51153
    7  C   1.09428   0.76387   1.10796   1.04566
    8  C   1.06172   1.03769   1.14033   1.06107
    9  H   0.86446
   10  H   0.86485
   11  C   1.05868   1.01147   1.12776   1.06826
   12  H   0.84712
   13  H   0.84720
   14  C   1.05974   1.02990   1.12234   1.05648
   15  O   1.87659   1.64237   1.50667   1.48801
   16  H   0.85986
   17  H   0.85994
   18  C   1.06000   1.02628   1.12107   1.06743
   19  H   0.86241
   20  H   0.86224
   21  C   1.06018   1.03086   1.11949   1.06344
   22  H   0.86288
   23  H   0.86311
   24  C   1.05540   1.02667   1.11086   1.05814
   25  H   0.86324
   26  H   0.86307
   27  C   1.05206   1.16735   1.13238   1.08787
   28  H   0.86611
   29  H   0.86622
   30  H   0.85753
   31  H   0.85934
   32  H   0.85753



 TOTAL JOB TIME:             0.21 SECONDS

 == MOPAC DONE ==
