 *******************************************************************************
 ** Site#: 6541         For non-commercial use only     Version 14.208M 64BITS**
 *******************************************************************************
 ** Cite this work as:                                                        **
 **                                                                           **
 ** (a) MOPAC2012, James J. P. Stewart, Stewart Computational Chemistry,      **
 **  Version 14.208M web: HTTP://OpenMOPAC.net         Days remaining: 126    **
 **                                                                           **
 **                                 AND                                       **
 **                                                                           **
 ** (b) Maia, J.D.C., et al., J. Chem. Theory Comput. 2012, 8, 3072-3081.     **
 **                DOI: 10.1021/ct3004645.                                    **
 *******************************************************************************
 **                                                                           **
 **                                MOPAC2012                                  **
 **                                                                           **
 *******************************************************************************

                            PM7 CALCULATION RESULTS


 *******************************************************************************
 *  CALCULATION DONE:                                Mon Mar 23 23:17:37 2015  *
 *  PM7        - The PM7 Hamiltonian to be used
 *  MMOK       - APPLY MM CORRECTION TO CONH BARRIER
 *  PRECISE    - CRITERIA TO BE INCREASED BY 100 TIMES
 *  BFGS       - USE THE BFGS GEOMETRY OPTIMIZER
 *  T=         - A TIME OF 172800.0 SECONDS REQUESTED
 *  DUMP=N     - RESTART FILE WRITTEN EVERY  7200.000 SECONDS
 *******************************************************************************
 BFGS PM7 MMOK PRECISE
 C2H2O

   ATOM   CHEMICAL          X               Y               Z
  NUMBER   SYMBOL      (ANGSTROMS)     (ANGSTROMS)     (ANGSTROMS)
 
     1       O          0.77740000  *   0.00000000  *   0.00000000  *
     2       C         -0.43490000  *  -0.65500000  *   0.00000000  *
     3       C         -0.43490000  *   0.65500000  *   0.00000000  *
     4       H         -0.98810000  *  -1.58260000  *  -0.00010000  *
     5       H         -0.98810000  *   1.58260000  *   0.00010000  *
 


          CARTESIAN COORDINATES 

    NO.       ATOM         X         Y         Z

     1         O        0.7774    0.0000    0.0000
     2         C       -0.4349   -0.6550    0.0000
     3         C       -0.4349    0.6550    0.0000
     4         H       -0.9881   -1.5826   -0.0001
     5         H       -0.9881    1.5826    0.0001

     ===================== shared-memory parallel CPU Section ======================
     **                                                                           **
     **  MOPAC calculations will run in shared-memory parallel CPUs               **
     **                                                                           **
     **  Number of Threads =  2                                                   **
     **                                                                           **
     **                                                                           **
     **  For information on this work, see:                                       **
     **                                                                           **
     **  Maia, J.D.C., et al., J. Chem. Theory Comput. 2012, 8, 3072-3081.        **
     **        DOI: 10.1021/ct3004645.                                            **
     **                                                                           **
     ===================== shared-memory parallel CPU Section ======================
      


 General Reference for PM7:
 "Optimization of Parameters for Semiempirical Methods VI: More Modifications to the 
 NDDO Approximations and Re-optimization of Parameters", J. J. P. Stewart, J. Mol. Mod., 1:32, 19 (2013)
 http://www.springerlink.com/openurl.asp?genre=article&id=doi:10.1007/s00894-012-1667-x

           Empirical Formula: C2 H2 O  =     5 atoms



      MOLECULAR POINT GROUP   :   C2v 


      RHF CALCULATION, NO. OF DOUBLY OCCUPIED LEVELS =    8

      Geometry optimization using BFGS
 CYCLE:     1 TIME:   0.000 TIME LEFT:  2.00D  GRAD.:    50.559 HEAT:  51.35160    
 CYCLE:     2 TIME:   0.000 TIME LEFT:  2.00D  GRAD.:    29.121 HEAT:  50.28518    
 CYCLE:     3 TIME:   0.000 TIME LEFT:  2.00D  GRAD.:    42.264 HEAT:  49.47770    
 CYCLE:     4 TIME:   0.000 TIME LEFT:  2.00D  GRAD.:    38.535 HEAT:  48.71126    
 CYCLE:     5 TIME:   0.000 TIME LEFT:  2.00D  GRAD.:    15.517 HEAT:  48.39888    
 CYCLE:     6 TIME:   0.000 TIME LEFT:  2.00D  GRAD.:     1.884 HEAT:  48.34330    
 CYCLE:     7 TIME:   0.000 TIME LEFT:  2.00D  GRAD.:     1.172 HEAT:  48.34114    
 TEST ON GRADIENT SATISFIED
                    HOWEVER, A COMPONENT OF GRADIENT IS LARGER THAN  0.20

 CYCLE:     8 TIME:   0.008 TIME LEFT:  2.00D  GRAD.:     0.567 HEAT:  48.34063    
 TEST ON GRADIENT SATISFIED
PETERS TEST SATISFIED

 -------------------------------------------------------------------------------
 BFGS PM7 MMOK PRECISE
 C2H2O



     PETERS TEST WAS SATISFIED IN BFGS OPTIMIZATION           
     SCF FIELD WAS ACHIEVED                                   


                              PM7 CALCULATION
                                                       MOPAC2012 (Version: 14.208M)
                                                       Mon Mar 23 23:17:37 2015
                                                       No. of days left = 126




          FINAL HEAT OF FORMATION =         48.34052 KCAL/MOL =     202.25676 KJ/MOL


          TOTAL ENERGY            =       -564.27766 EV
          ELECTRONIC ENERGY       =      -1308.76020 EV  POINT GROUP:     C2v 
          CORE-CORE REPULSION     =        744.48254 EV
          COSMO AREA              =         74.66 SQUARE ANGSTROMS
          COSMO VOLUME            =         57.29 CUBIC ANGSTROMS

          GRADIENT NORM           =          0.25666
          IONIZATION POTENTIAL    =          9.256620 EV
          HOMO LUMO ENERGIES (EV) =         -9.257  0.221
          NO. OF FILLED LEVELS    =          8
          MOLECULAR WEIGHT        =         42.037

          MOLECULAR DIMENSIONS (Angstroms)

            Atom       Atom       Distance
            H     5    H     4     3.30375
            H     4    O     1     1.56392
            C     3    C     2     0.00013


          SCF CALCULATIONS        =         13
 
          WALL-CLOCK TIME         =          0.016 SECONDS
          COMPUTATION TIME        =          0.013 SECONDS




   ATOM   CHEMICAL          X               Y               Z
  NUMBER   SYMBOL      (ANGSTROMS)     (ANGSTROMS)     (ANGSTROMS)
 
     1       O          0.79242082  *   0.00830921  *   0.00935051  *
     2       C         -0.49734754  *  -0.64824602  *  -0.00035020  *
     3       C         -0.50470703  *   0.64837751  *   0.00267696  *
     4       H         -0.76058542  *  -1.65367644  *  -0.00454792  *
     5       H         -0.78228956  *   1.64999016  *   0.00348384  *
                             CARTESIAN COORDINATES

   1    O        0.792420820     0.008309207     0.009350515
   2    C       -0.497347539    -0.648246022    -0.000350204
   3    C       -0.504707032     0.648377505     0.002676957
   4    H       -0.760585420    -1.653676437    -0.004547920
   5    H       -0.782289564     1.649990158     0.003483841


           Empirical Formula: C2 H2 O  =     5 atoms



      MOLECULAR POINT GROUP   :   C2v 


                  EIGENVALUES  
 -31.89089 -24.21357 -21.05468 -17.01665 -14.18867 -13.87616 -13.71981  -9.25662
   0.22071   1.96856   2.33125   4.26321   5.44481   5.48469


              NET ATOMIC CHARGES AND DIPOLE CONTRIBUTIONS

  ATOM NO.   TYPE          CHARGE      No. of ELECS.   s-Pop       p-Pop       
    1          O          -0.357038        6.3570     1.93494     4.42210
    2          C          -0.021663        4.0217     1.12092     2.90074
    3          C          -0.020693        4.0207     1.12079     2.89991
    4          H           0.199728        0.8003     0.80027
    5          H           0.199666        0.8003     0.80033
 DIPOLE           X         Y         Z       TOTAL
 POINT-CHG.    -2.737    -0.015    -0.017     2.737
 HYBRID         0.666     0.004     0.004     0.666
 SUM           -2.071    -0.011    -0.013     2.071


          ATOMIC ORBITAL ELECTRON POPULATIONS

    Atom      s        px        py        pz   
    1  O   1.93494   1.02029   1.40185   1.99996
    2  C   1.12092   0.87978   1.02050   1.00047
    3  C   1.12079   0.87917   1.02121   0.99953
    4  H   0.80027
    5  H   0.80033



 TOTAL JOB TIME:             0.02 SECONDS

 == MOPAC DONE ==
