 *******************************************************************************
 ** Site#: 6541         For non-commercial use only     Version 14.208M 64BITS**
 *******************************************************************************
 ** Cite this work as:                                                        **
 **                                                                           **
 ** (a) MOPAC2012, James J. P. Stewart, Stewart Computational Chemistry,      **
 **  Version 14.208M web: HTTP://OpenMOPAC.net         Days remaining: 126    **
 **                                                                           **
 **                                 AND                                       **
 **                                                                           **
 ** (b) Maia, J.D.C., et al., J. Chem. Theory Comput. 2012, 8, 3072-3081.     **
 **                DOI: 10.1021/ct3004645.                                    **
 *******************************************************************************
 **                                                                           **
 **                                MOPAC2012                                  **
 **                                                                           **
 *******************************************************************************

                            PM7 CALCULATION RESULTS


 *******************************************************************************
 *  CALCULATION DONE:                                Mon Mar 23 23:17:51 2015  *
 *  PM7        - The PM7 Hamiltonian to be used
 *  MMOK       - APPLY MM CORRECTION TO CONH BARRIER
 *  PRECISE    - CRITERIA TO BE INCREASED BY 100 TIMES
 *  BFGS       - USE THE BFGS GEOMETRY OPTIMIZER
 *  T=         - A TIME OF 172800.0 SECONDS REQUESTED
 *  DUMP=N     - RESTART FILE WRITTEN EVERY  7200.000 SECONDS
 *******************************************************************************
 BFGS PM7 MMOK PRECISE
 C4H9N

   ATOM   CHEMICAL          X               Y               Z
  NUMBER   SYMBOL      (ANGSTROMS)     (ANGSTROMS)     (ANGSTROMS)
 
     1       N         -1.22850000  *   0.16620000  *   0.11790000  *
     2       C         -0.54160000  *  -1.13820000  *   0.09100000  *
     3       C          0.94740000  *  -0.86470000  *  -0.20820000  *
     4       C          1.12590000  *   0.61320000  *   0.22850000  *
     5       C         -0.23910000  *   1.22540000  *  -0.17370000  *
     6       H         -1.98830000  *   0.18850000  *  -0.54570000  *
     7       H         -0.64120000  *  -1.62980000  *   1.05870000  *
     8       H         -0.96790000  *  -1.76570000  *  -0.69170000  *
     9       H          1.58610000  *  -1.52100000  *   0.38290000  *
    10       H          1.15420000  *  -0.97990000  *  -1.27220000  *
    11       H          1.28460000  *   0.68600000  *   1.30440000  *
    12       H          1.94200000  *   1.08600000  *  -0.31790000  *
    13       H         -0.24700000  *   1.47000000  *  -1.23590000  *
    14       H         -0.44720000  *   2.11360000  *   0.42270000  *
 


          CARTESIAN COORDINATES 

    NO.       ATOM         X         Y         Z

     1         N       -1.2285    0.1662    0.1179
     2         C       -0.5416   -1.1382    0.0910
     3         C        0.9474   -0.8647   -0.2082
     4         C        1.1259    0.6132    0.2285
     5         C       -0.2391    1.2254   -0.1737
     6         H       -1.9883    0.1885   -0.5457
     7         H       -0.6412   -1.6298    1.0587
     8         H       -0.9679   -1.7657   -0.6917
     9         H        1.5861   -1.5210    0.3829
    10         H        1.1542   -0.9799   -1.2722
    11         H        1.2846    0.6860    1.3044
    12         H        1.9420    1.0860   -0.3179
    13         H       -0.2470    1.4700   -1.2359
    14         H       -0.4472    2.1136    0.4227

     ===================== shared-memory parallel CPU Section ======================
     **                                                                           **
     **  MOPAC calculations will run in shared-memory parallel CPUs               **
     **                                                                           **
     **  Number of Threads =  2                                                   **
     **                                                                           **
     **                                                                           **
     **  For information on this work, see:                                       **
     **                                                                           **
     **  Maia, J.D.C., et al., J. Chem. Theory Comput. 2012, 8, 3072-3081.        **
     **        DOI: 10.1021/ct3004645.                                            **
     **                                                                           **
     ===================== shared-memory parallel CPU Section ======================
      


 General Reference for PM7:
 "Optimization of Parameters for Semiempirical Methods VI: More Modifications to the 
 NDDO Approximations and Re-optimization of Parameters", J. J. P. Stewart, J. Mol. Mod., 1:32, 19 (2013)
 http://www.springerlink.com/openurl.asp?genre=article&id=doi:10.1007/s00894-012-1667-x

           Empirical Formula: C4 H9 N  =    14 atoms



      MOLECULAR POINT GROUP   :   C1  


      RHF CALCULATION, NO. OF DOUBLY OCCUPIED LEVELS =   15

      Geometry optimization using BFGS
 CYCLE:     1 TIME:   0.000 TIME LEFT:  2.00D  GRAD.:    25.906 HEAT: -2.468820    
 CYCLE:     2 TIME:   0.008 TIME LEFT:  2.00D  GRAD.:    13.822 HEAT: -2.829971    
 CYCLE:     3 TIME:   0.000 TIME LEFT:  2.00D  GRAD.:     9.376 HEAT: -3.016326    
 CYCLE:     4 TIME:   0.000 TIME LEFT:  2.00D  GRAD.:    11.029 HEAT: -3.131072    
 CYCLE:     5 TIME:   0.008 TIME LEFT:  2.00D  GRAD.:     6.870 HEAT: -3.210155    
 CYCLE:     6 TIME:   0.000 TIME LEFT:  2.00D  GRAD.:     4.150 HEAT: -3.255066    
 CYCLE:     7 TIME:   0.008 TIME LEFT:  2.00D  GRAD.:     3.599 HEAT: -3.297049    
 CYCLE:     8 TIME:   0.000 TIME LEFT:  2.00D  GRAD.:     4.523 HEAT: -3.338638    
 CYCLE:     9 TIME:   0.008 TIME LEFT:  2.00D  GRAD.:     5.034 HEAT: -3.390510    
 CYCLE:    10 TIME:   0.000 TIME LEFT:  2.00D  GRAD.:     5.784 HEAT: -3.457813    
 CYCLE:    11 TIME:   0.000 TIME LEFT:  2.00D  GRAD.:     6.427 HEAT: -3.539072    
 CYCLE:    12 TIME:   0.008 TIME LEFT:  2.00D  GRAD.:     7.330 HEAT: -3.644113    
 CYCLE:    13 TIME:   0.000 TIME LEFT:  2.00D  GRAD.:     7.448 HEAT: -3.763998    
 CYCLE:    14 TIME:   0.008 TIME LEFT:  2.00D  GRAD.:     7.189 HEAT: -3.900092    
 CYCLE:    15 TIME:   0.000 TIME LEFT:  2.00D  GRAD.:     7.070 HEAT: -4.036295    
 CYCLE:    16 TIME:   0.008 TIME LEFT:  2.00D  GRAD.:     7.543 HEAT: -4.152094    
 CYCLE:    17 TIME:   0.000 TIME LEFT:  2.00D  GRAD.:     6.624 HEAT: -4.258122    
 CYCLE:    18 TIME:   0.000 TIME LEFT:  2.00D  GRAD.:    11.777 HEAT: -4.343048    
 CYCLE:    19 TIME:   0.008 TIME LEFT:  2.00D  GRAD.:    16.201 HEAT: -4.369652    
 CYCLE:    20 TIME:   0.000 TIME LEFT:  2.00D  GRAD.:    17.980 HEAT: -4.546191    
 CYCLE:    21 TIME:   0.008 TIME LEFT:  2.00D  GRAD.:    16.530 HEAT: -4.556359    
 CYCLE:    22 TIME:   0.000 TIME LEFT:  2.00D  GRAD.:     5.741 HEAT: -4.879176    
 CYCLE:    23 TIME:   0.000 TIME LEFT:  2.00D  GRAD.:    14.407 HEAT: -5.016358    
 CYCLE:    24 TIME:   0.008 TIME LEFT:  2.00D  GRAD.:     6.712 HEAT: -5.294296    
 CYCLE:    25 TIME:   0.000 TIME LEFT:  2.00D  GRAD.:    50.682 HEAT: -5.408734    
 CYCLE:    26 TIME:   0.008 TIME LEFT:  2.00D  GRAD.:     8.425 HEAT: -5.412907    
 CYCLE:    27 TIME:   0.000 TIME LEFT:  2.00D  GRAD.:     4.873 HEAT: -5.455500    
 CYCLE:    28 TIME:   0.008 TIME LEFT:  2.00D  GRAD.:     5.646 HEAT: -5.462724    
 CYCLE:    29 TIME:   0.000 TIME LEFT:  2.00D  GRAD.:     2.473 HEAT: -5.478242    
 CYCLE:    30 TIME:   0.000 TIME LEFT:  2.00D  GRAD.:     1.612 HEAT: -5.483898    
 CYCLE:    31 TIME:   0.008 TIME LEFT:  2.00D  GRAD.:     1.484 HEAT: -5.489794    
 CYCLE:    32 TIME:   0.000 TIME LEFT:  2.00D  GRAD.:     1.400 HEAT: -5.494784    
 CYCLE:    33 TIME:   0.000 TIME LEFT:  2.00D  GRAD.:     1.953 HEAT: -5.499880    
 CYCLE:    34 TIME:   0.008 TIME LEFT:  2.00D  GRAD.:     2.090 HEAT: -5.506446    
 CYCLE:    35 TIME:   0.000 TIME LEFT:  2.00D  GRAD.:     2.064 HEAT: -5.514549    
 CYCLE:    36 TIME:   0.008 TIME LEFT:  2.00D  GRAD.:     2.961 HEAT: -5.528197    
 CYCLE:    37 TIME:   0.000 TIME LEFT:  2.00D  GRAD.:     2.316 HEAT: -5.546471    
 CYCLE:    38 TIME:   0.000 TIME LEFT:  2.00D  GRAD.:     1.825 HEAT: -5.554598    
 CYCLE:    39 TIME:   0.008 TIME LEFT:  2.00D  GRAD.:     1.345 HEAT: -5.560674    
 TEST ON GRADIENT SATISFIED
                    HOWEVER, A COMPONENT OF GRADIENT IS LARGER THAN  0.20

 CYCLE:    40 TIME:   0.000 TIME LEFT:  2.00D  GRAD.:     0.968 HEAT: -5.563717    
 TEST ON GRADIENT SATISFIED
                    HOWEVER, A COMPONENT OF GRADIENT IS LARGER THAN  0.20

 CYCLE:    41 TIME:   0.008 TIME LEFT:  2.00D  GRAD.:     0.563 HEAT: -5.565544    
 TEST ON GRADIENT SATISFIED
PETERS TEST SATISFIED

 -------------------------------------------------------------------------------
 BFGS PM7 MMOK PRECISE
 C4H9N



     PETERS TEST WAS SATISFIED IN BFGS OPTIMIZATION           
     SCF FIELD WAS ACHIEVED                                   


                              PM7 CALCULATION
                                                       MOPAC2012 (Version: 14.208M)
                                                       Mon Mar 23 23:17:51 2015
                                                       No. of days left = 126




          FINAL HEAT OF FORMATION =         -5.56609 KCAL/MOL =     -23.28854 KJ/MOL


          TOTAL ENERGY            =       -799.17002 EV
          ELECTRONIC ENERGY       =      -3298.53965 EV  POINT GROUP:     Cs  
          CORE-CORE REPULSION     =       2499.36964 EV
          COSMO AREA              =        116.39 SQUARE ANGSTROMS
          COSMO VOLUME            =        104.26 CUBIC ANGSTROMS

          GRADIENT NORM           =          0.37692
          IONIZATION POTENTIAL    =          9.217915 EV
          HOMO LUMO ENERGIES (EV) =         -9.218  3.088
          NO. OF FILLED LEVELS    =         15
          MOLECULAR WEIGHT        =         71.122

          MOLECULAR DIMENSIONS (Angstroms)

            Atom       Atom       Distance
            H    13    H     9     4.20580
            H    11    H     8     4.12894
            H     7    H    10     2.91463


          SCF CALCULATIONS        =         58
 
          WALL-CLOCK TIME         =          0.148 SECONDS
          COMPUTATION TIME        =          0.296 SECONDS




   ATOM   CHEMICAL          X               Y               Z
  NUMBER   SYMBOL      (ANGSTROMS)     (ANGSTROMS)     (ANGSTROMS)
 
     1       N         -1.26514550  *   0.18198079  *  -0.31790681  *
     2       C         -0.60766383  *  -1.08528997  *   0.09119566  *
     3       C          0.92305500  *  -0.88074392  *  -0.02163454  *
     4       C          1.12931582  *   0.64524863  *  -0.05656255  *
     5       C         -0.29262188  *   1.25624855  *   0.00813122  *
     6       H         -1.47347247  *   0.17451477  *  -1.31415990  *
     7       H         -0.89950838  *  -1.28631833  *   1.14409554  *
     8       H         -0.96618480  *  -1.93424446  *  -0.51510105  *
     9       H          1.44951346  *  -1.34296278  *   0.82641976  *
    10       H          1.32154140  *  -1.35608509  *  -0.93088038  *
    11       H          1.74667667  *   0.98920676  *   0.78663463  *
    12       H          1.65413696  *   0.95463344  *  -0.97302504  *
    13       H         -0.41204204  *   2.11952175  *  -0.66842914  *
    14       H         -0.52198969  *   1.60921418  *   1.03602740  *
                             CARTESIAN COORDINATES

   1    N       -1.265145500     0.181980793    -0.317906815
   2    C       -0.607663829    -1.085289968     0.091195657
   3    C        0.923054997    -0.880743917    -0.021634539
   4    C        1.129315824     0.645248626    -0.056562553
   5    C       -0.292621879     1.256248545     0.008131224
   6    H       -1.473472473     0.174514765    -1.314159900
   7    H       -0.899508385    -1.286318328     1.144095541
   8    H       -0.966184797    -1.934244459    -0.515101048
   9    H        1.449513461    -1.342962780     0.826419761
  10    H        1.321541400    -1.356085091    -0.930880384
  11    H        1.746676670     0.989206760     0.786634631
  12    H        1.654136964     0.954633438    -0.973025045
  13    H       -0.412042038     2.119521751    -0.668429140
  14    H       -0.521989692     1.609214176     1.036027402


           Empirical Formula: C4 H9 N  =    14 atoms



      MOLECULAR POINT GROUP   :   Cs  


                  EIGENVALUES  
 -35.29151 -27.41473 -25.04237 -20.97357 -19.72033 -17.57462 -16.28584 -14.71484
 -14.49344 -13.24668 -12.64277 -12.14413 -12.08249 -11.37588  -9.21792   3.08842
   3.59367   4.21948   4.65947   5.00992   5.05498   5.49981   5.61480   6.06257
   6.13359   6.33215   6.39167   6.46958   6.93712


              NET ATOMIC CHARGES AND DIPOLE CONTRIBUTIONS

  ATOM NO.   TYPE          CHARGE      No. of ELECS.   s-Pop       p-Pop       
    1          N          -0.517921        5.5179     1.67825     3.83967
    2          C          -0.109919        4.1099     1.07367     3.03625
    3          C          -0.300514        4.3005     1.06931     3.23121
    4          C          -0.300049        4.3000     1.06933     3.23072
    5          C          -0.110058        4.1101     1.07382     3.03624
    6          H           0.244485        0.7555     0.75551
    7          H           0.144559        0.8554     0.85544
    8          H           0.126842        0.8732     0.87316
    9          H           0.140098        0.8599     0.85990
   10          H           0.135661        0.8643     0.86434
   11          H           0.140064        0.8599     0.85994
   12          H           0.135653        0.8643     0.86435
   13          H           0.126583        0.8734     0.87342
   14          H           0.144517        0.8555     0.85548
 DIPOLE           X         Y         Z       TOTAL
 POINT-CHG.     1.196    -0.163    -0.054     1.208
 HYBRID         0.630    -0.112    -0.745     0.982
 SUM            1.826    -0.275    -0.799     2.012


          ATOMIC ORBITAL ELECTRON POPULATIONS

    Atom      s        px        py        pz   
    1  N   1.67825   1.42678   1.09241   1.32048
    2  C   1.07367   0.94823   0.94973   1.13828
    3  C   1.06931   1.04455   1.02403   1.16262
    4  C   1.06933   1.05784   1.01002   1.16286
    5  C   1.07382   0.91040   0.98135   1.14449
    6  H   0.75551
    7  H   0.85544
    8  H   0.87316
    9  H   0.85990
   10  H   0.86434
   11  H   0.85994
   12  H   0.86435
   13  H   0.87342
   14  H   0.85548



 TOTAL JOB TIME:             0.15 SECONDS

 == MOPAC DONE ==
