 *******************************************************************************
 ** Site#: 6541         For non-commercial use only     Version 14.208M 64BITS**
 *******************************************************************************
 ** Cite this work as:                                                        **
 **                                                                           **
 ** (a) MOPAC2012, James J. P. Stewart, Stewart Computational Chemistry,      **
 **  Version 14.208M web: HTTP://OpenMOPAC.net         Days remaining: 126    **
 **                                                                           **
 **                                 AND                                       **
 **                                                                           **
 ** (b) Maia, J.D.C., et al., J. Chem. Theory Comput. 2012, 8, 3072-3081.     **
 **                DOI: 10.1021/ct3004645.                                    **
 *******************************************************************************
 **                                                                           **
 **                                MOPAC2012                                  **
 **                                                                           **
 *******************************************************************************

                            PM7 CALCULATION RESULTS


 *******************************************************************************
 *  CALCULATION DONE:                                Mon Mar 23 23:17:50 2015  *
 *  PM7        - The PM7 Hamiltonian to be used
 *  MMOK       - APPLY MM CORRECTION TO CONH BARRIER
 *  PRECISE    - CRITERIA TO BE INCREASED BY 100 TIMES
 *  BFGS       - USE THE BFGS GEOMETRY OPTIMIZER
 *  T=         - A TIME OF 172800.0 SECONDS REQUESTED
 *  DUMP=N     - RESTART FILE WRITTEN EVERY  7200.000 SECONDS
 *******************************************************************************
 BFGS PM7 MMOK PRECISE
 C3H3N

   ATOM   CHEMICAL          X               Y               Z
  NUMBER   SYMBOL      (ANGSTROMS)     (ANGSTROMS)     (ANGSTROMS)
 
     1       N          0.00000000  *  -0.97280000  *   0.00000000  *
     2       C         -0.97100000  *  -0.01660000  *   0.00000000  *
     3       C          0.00000000  *   0.99920000  *   0.00000000  *
     4       C          0.97100000  *  -0.01660000  *   0.00000000  *
     5       H         -2.05090000  *  -0.03300000  *   0.00000000  *
     6       H          0.00000000  *   2.07920000  *  -0.00020000  *
     7       H          2.05090000  *  -0.03300000  *   0.00020000  *
 


          CARTESIAN COORDINATES 

    NO.       ATOM         X         Y         Z

     1         N        0.0000   -0.9728    0.0000
     2         C       -0.9710   -0.0166    0.0000
     3         C        0.0000    0.9992    0.0000
     4         C        0.9710   -0.0166    0.0000
     5         H       -2.0509   -0.0330    0.0000
     6         H        0.0000    2.0792   -0.0002
     7         H        2.0509   -0.0330    0.0002

     ===================== shared-memory parallel CPU Section ======================
     **                                                                           **
     **  MOPAC calculations will run in shared-memory parallel CPUs               **
     **                                                                           **
     **  Number of Threads =  2                                                   **
     **                                                                           **
     **                                                                           **
     **  For information on this work, see:                                       **
     **                                                                           **
     **  Maia, J.D.C., et al., J. Chem. Theory Comput. 2012, 8, 3072-3081.        **
     **        DOI: 10.1021/ct3004645.                                            **
     **                                                                           **
     ===================== shared-memory parallel CPU Section ======================
      


 General Reference for PM7:
 "Optimization of Parameters for Semiempirical Methods VI: More Modifications to the 
 NDDO Approximations and Re-optimization of Parameters", J. J. P. Stewart, J. Mol. Mod., 1:32, 19 (2013)
 http://www.springerlink.com/openurl.asp?genre=article&id=doi:10.1007/s00894-012-1667-x

           Empirical Formula: C3 H3 N  =     7 atoms



      MOLECULAR POINT GROUP   :   C2v 


      RHF CALCULATION, NO. OF DOUBLY OCCUPIED LEVELS =   10

      Geometry optimization using BFGS
 CYCLE:     1 TIME:   0.008 TIME LEFT:  2.00D  GRAD.:   151.530 HEAT:  117.5364    
 CYCLE:     2 TIME:   0.000 TIME LEFT:  2.00D  GRAD.:   109.300 HEAT:  114.1765    
 CYCLE:     3 TIME:   0.000 TIME LEFT:  2.00D  GRAD.:    31.490 HEAT:  111.7534    
 CYCLE:     4 TIME:   0.000 TIME LEFT:  2.00D  GRAD.:    42.643 HEAT:  111.5674    
 CYCLE:     5 TIME:   0.000 TIME LEFT:  2.00D  GRAD.:    10.621 HEAT:  111.0470    
 CYCLE:     6 TIME:   0.008 TIME LEFT:  2.00D  GRAD.:     6.234 HEAT:  110.9759    
 CYCLE:     7 TIME:   0.000 TIME LEFT:  2.00D  GRAD.:     4.327 HEAT:  110.9480    
 CYCLE:     8 TIME:   0.000 TIME LEFT:  2.00D  GRAD.:     2.512 HEAT:  110.9420    
 CYCLE:     9 TIME:   0.000 TIME LEFT:  2.00D  GRAD.:     2.647 HEAT:  110.9387    
 TEST ON GRADIENT SATISFIED
                    HOWEVER, A COMPONENT OF GRADIENT IS LARGER THAN  0.20

 CYCLE:    10 TIME:   0.000 TIME LEFT:  2.00D  GRAD.:     0.685 HEAT:  110.9365    
 TEST ON GRADIENT SATISFIED
                    HOWEVER, A COMPONENT OF GRADIENT IS LARGER THAN  0.20

 CYCLE:    11 TIME:   0.000 TIME LEFT:  2.00D  GRAD.:     0.536 HEAT:  110.9363    
 TEST ON GRADIENT SATISFIED
                    HOWEVER, A COMPONENT OF GRADIENT IS LARGER THAN  0.20

 CYCLE:    12 TIME:   0.000 TIME LEFT:  2.00D  GRAD.:     0.346 HEAT:  110.9362    
 TEST ON GRADIENT SATISFIED
PETERS TEST SATISFIED

 -------------------------------------------------------------------------------
 BFGS PM7 MMOK PRECISE
 C3H3N



     PETERS TEST WAS SATISFIED IN BFGS OPTIMIZATION           
     SCF FIELD WAS ACHIEVED                                   


                              PM7 CALCULATION
                                                       MOPAC2012 (Version: 14.208M)
                                                       Mon Mar 23 23:17:50 2015
                                                       No. of days left = 126




          FINAL HEAT OF FORMATION =        110.93613 KCAL/MOL =     464.15676 KJ/MOL


          TOTAL ENERGY            =       -591.05699 EV
          ELECTRONIC ENERGY       =      -1747.04988 EV  POINT GROUP:     Cs  
          CORE-CORE REPULSION     =       1155.99289 EV
          COSMO AREA              =         90.41 SQUARE ANGSTROMS
          COSMO VOLUME            =         74.77 CUBIC ANGSTROMS

          GRADIENT NORM           =          0.10192
          IONIZATION POTENTIAL    =          9.983646 EV
          HOMO LUMO ENERGIES (EV) =         -9.984 -0.894
          NO. OF FILLED LEVELS    =         10
          MOLECULAR WEIGHT        =         53.063

          MOLECULAR DIMENSIONS (Angstroms)

            Atom       Atom       Distance
            H     7    H     5     4.09192
            H     6    N     1     3.12555
            N     1    C     2     0.00005


          SCF CALCULATIONS        =         19
 
          WALL-CLOCK TIME         =          0.023 SECONDS
          COMPUTATION TIME        =          0.051 SECONDS




   ATOM   CHEMICAL          X               Y               Z
  NUMBER   SYMBOL      (ANGSTROMS)     (ANGSTROMS)     (ANGSTROMS)
 
     1       N         -0.12463015  *  -1.00396672  *   0.00031263  *
     2       C         -0.99295877  *  -0.02501993  *  -0.00048154  *
     3       C          0.11828634  *   1.06354407  *  -0.00047208  *
     4       C          0.99747828  *   0.04155346  *   0.00041531  *
     5       H         -2.05560282  *   0.02040369  *  -0.00100865  *
     6       H          0.09628127  *   2.11449947  *  -0.00097535  *
     7       H          2.03139654  *  -0.18015057  *   0.00098737  *
                             CARTESIAN COORDINATES

   1    N       -0.124630152    -1.003966715     0.000312632
   2    C       -0.992958771    -0.025019929    -0.000481539
   3    C        0.118286339     1.063544071    -0.000472080
   4    C        0.997478279     0.041553461     0.000415315
   5    H       -2.055602815     0.020403690    -0.001008651
   6    H        0.096281273     2.114499471    -0.000975346
   7    H        2.031396540    -0.180150569     0.000987374


           Empirical Formula: C3 H3 N  =     7 atoms



      MOLECULAR POINT GROUP   :   Cs  


                  EIGENVALUES  
 -36.46248 -25.49988 -22.64856 -18.71165 -17.19510 -15.62829 -14.08720 -13.51335
 -10.87277  -9.98365  -0.89351   1.12680   1.90060   3.24323   4.38145   4.63540
   5.15513   5.56844   5.71929


              NET ATOMIC CHARGES AND DIPOLE CONTRIBUTIONS

  ATOM NO.   TYPE          CHARGE      No. of ELECS.   s-Pop       p-Pop       
    1          N          -0.354800        5.3548     1.81502     3.53978
    2          C           0.081791        3.9182     1.13906     2.77915
    3          C          -0.287167        4.2872     1.12052     3.16664
    4          C           0.029700        3.9703     1.13389     2.83641
    5          H           0.177210        0.8228     0.82279
    6          H           0.176460        0.8235     0.82354
    7          H           0.176806        0.8232     0.82319
 DIPOLE           X         Y         Z       TOTAL
 POINT-CHG.    -0.141     1.897    -0.001     1.902
 HYBRID        -0.056     0.541    -0.000     0.544
 SUM           -0.197     2.438    -0.001     2.446


          ATOMIC ORBITAL ELECTRON POPULATIONS

    Atom      s        px        py        pz   
    1  N   1.81502   1.08683   1.29954   1.15342
    2  C   1.13906   1.02369   0.91286   0.84260
    3  C   1.12052   0.99879   1.06939   1.09846
    4  C   1.13389   1.01415   0.91674   0.90552
    5  H   0.82279
    6  H   0.82354
    7  H   0.82319



 TOTAL JOB TIME:             0.02 SECONDS

 == MOPAC DONE ==
